/*--------------------------------*- C++ -*----------------------------------*\
  =========                 |
  \\      /  F ield         | OpenFOAM: The Open Source CFD Toolbox
   \\    /   O peration     | Website:  https://openfoam.org
    \\  /    A nd           | Version:  8
     \\/     M anipulation  |
\*---------------------------------------------------------------------------*/
FoamFile
{
    version     2.0;
    format      ascii;
    class       volScalarField;
    location    "0.2";
    object      CH3CHOCH3(s);
}
// * * * * * * * * * * * * * * * * * * * * * * * * * * * * * * * * * * * * * //

dimensions      [0 0 0 0 0 0 0];

internalField   uniform 0;

boundaryField
{
    reactingWall
    {
        type            fixedValue;
        value           nonuniform List<scalar> 
75
(
5.472679395256119e-08
5.32468067310224525e-08
5.15318736363055267e-08
4.9603503523057227e-08
4.78102372427457216e-08
4.60543903830188906e-08
4.42015285260449773e-08
4.22104768157319018e-08
4.01759590771091071e-08
3.81232506472006666e-08
3.60474953601437787e-08
3.39420751533055399e-08
3.18205474249184608e-08
2.96961479876218485e-08
2.75505946636642961e-08
2.53871406626923688e-08
2.32254279900809583e-08
2.10988312163445512e-08
1.90548148349164763e-08
1.71369316206709205e-08
1.53621021801230468e-08
1.37304987650371051e-08
1.22337491956181844e-08
1.08665884088005252e-08
9.62314544745965927e-09
8.47980313666695673e-09
7.42745120408643104e-09
6.47941634849697149e-09
5.64671013177452802e-09
4.93227875705186472e-09
4.33321842173818652e-09
3.83550135816354251e-09
3.4183959092988667e-09
3.05406486138121113e-09
2.73143669955953089e-09
2.43088447243270721e-09
2.15179641286410614e-09
1.90189883274489193e-09
1.67252452141089406e-09
1.45526727041016487e-09
1.25492760160900442e-09
1.0789620859158658e-09
9.31996598617078547e-10
8.09448313070057942e-10
7.02019847052192555e-10
6.04628104774141379e-10
5.15433302245156537e-10
4.337248830801801e-10
3.60215149394877809e-10
2.94658319732267388e-10
2.36964568289088743e-10
1.88861670593978393e-10
1.51821946773996723e-10
1.23770305067437028e-10
1.01257188226533001e-10
8.20256882697937121e-11
6.4716316182884079e-11
4.89690692926498757e-11
3.55766240655510887e-11
2.5478550270644296e-11
1.85062902361068086e-11
1.35629468894662147e-11
9.95519419822349566e-12
7.3197924071939365e-12
5.40448862650183863e-12
4.02580202837030583e-12
3.03443968678281983e-12
2.31696939779944757e-12
1.78302932450017706e-12
1.37049509744548438e-12
1.04801432083387149e-12
7.89827495674619817e-13
6.05654568072744925e-13
4.48211119823746932e-13
2.98916028355090538e-13
)
;
    }
    inertWall
    {
        type            zeroGradient;
    }
    inlet
    {
        type            fixedValue;
        value           uniform 0;
    }
    outlet
    {
        type            zeroGradient;
    }
    defaultFaces
    {
        type            empty;
    }
}


// ************************************************************************* //
