/*--------------------------------*- C++ -*----------------------------------*\
  =========                 |
  \\      /  F ield         | OpenFOAM: The Open Source CFD Toolbox
   \\    /   O peration     | Website:  https://openfoam.org
    \\  /    A nd           | Version:  8
     \\/     M anipulation  |
\*---------------------------------------------------------------------------*/
FoamFile
{
    version     2.0;
    format      ascii;
    class       volScalarField;
    location    "0.2";
    object      CH3CHOHCH3(s);
}
// * * * * * * * * * * * * * * * * * * * * * * * * * * * * * * * * * * * * * //

dimensions      [0 0 0 0 0 0 0];

internalField   uniform 0;

boundaryField
{
    reactingWall
    {
        type            fixedValue;
        value           nonuniform List<scalar> 
75
(
4.94865041452844296e-07
4.94863632755647428e-07
4.9485993172179726e-07
4.94850667899504943e-07
4.94828533087306932e-07
4.94777801451415361e-07
4.94666194415268682e-07
4.94436920906786539e-07
4.94037510564071284e-07
4.93307954522443415e-07
4.91901476945628705e-07
4.89300029584071271e-07
4.84698432578261792e-07
4.80050352831808027e-07
4.7463690360009093e-07
4.67269162621663373e-07
4.56442037085972739e-07
4.41236440000758891e-07
4.20289102105326891e-07
3.95163359423537234e-07
3.69358508734324686e-07
3.44412586864763526e-07
3.20643589394643913e-07
2.97908154224252687e-07
2.7762359987932306e-07
2.64347572944602396e-07
2.47560595018850734e-07
2.28537828605356464e-07
2.06845001672516897e-07
1.84466917859756676e-07
1.62724695161581277e-07
1.4317879369876174e-07
1.28768559306905204e-07
1.17437798022039007e-07
1.08190809952190871e-07
1.00231497306741278e-07
9.25221246354407945e-08
8.55189442266698366e-08
7.97977829444432988e-08
7.39756065734125462e-08
6.66566188152588917e-08
5.81796842117589125e-08
5.00012320857979856e-08
4.41379252730704591e-08
3.98645608247198548e-08
3.6268159250473941e-08
3.29439252988571587e-08
2.94254914495345479e-08
2.59732736673571369e-08
2.27958771200948707e-08
1.96272800399071178e-08
1.61240113142162615e-08
1.28091711192132987e-08
1.04611813918515018e-08
8.8194485987864716e-09
7.64786616962436661e-09
6.68523889688438206e-09
5.70554762483704302e-09
4.47970782871914565e-09
3.23845103387225946e-09
2.31056139830206741e-09
1.70929967293443487e-09
1.26697470286135243e-09
9.34612339395812208e-10
6.85258593086590329e-10
5.0122888982467292e-10
3.678435939836504e-10
2.7399398835897907e-10
2.09526034959035138e-10
1.65060126138267483e-10
1.3099637895331077e-10
1.01309350048544448e-10
8.02278188447061894e-11
6.22463253892339955e-11
4.32156387060144947e-11
)
;
    }
    inertWall
    {
        type            zeroGradient;
    }
    inlet
    {
        type            fixedValue;
        value           uniform 0;
    }
    outlet
    {
        type            zeroGradient;
    }
    defaultFaces
    {
        type            empty;
    }
}


// ************************************************************************* //
