/*--------------------------------*- C++ -*----------------------------------*\
  =========                 |
  \\      /  F ield         | OpenFOAM: The Open Source CFD Toolbox
   \\    /   O peration     | Website:  https://openfoam.org
    \\  /    A nd           | Version:  8
     \\/     M anipulation  |
\*---------------------------------------------------------------------------*/
FoamFile
{
    version     2.0;
    format      ascii;
    class       volScalarField;
    location    "0.2";
    object      CH3COHCH3(s);
}
// * * * * * * * * * * * * * * * * * * * * * * * * * * * * * * * * * * * * * //

dimensions      [0 0 0 0 0 0 0];

internalField   uniform 0;

boundaryField
{
    reactingWall
    {
        type            fixedValue;
        value           nonuniform List<scalar> 
75
(
2.4332001396151863e-12
2.39821234127857828e-12
2.35596244017506068e-12
2.30542266303442613e-12
2.25487970137692938e-12
2.20377871682818518e-12
2.14819381901109578e-12
2.08544665337226253e-12
2.01783992268329184e-12
1.94617603817281472e-12
1.87059735237389831e-12
1.79085075186624368e-12
1.70748756798561932e-12
1.6202501165789572e-12
1.52787430209783191e-12
1.43006372621068545e-12
1.32764380846648999e-12
1.22253341845775462e-12
1.11804163542685545e-12
1.01768844609830112e-12
9.23139479965074222e-13
8.3472817712240477e-13
7.52124880478096318e-13
6.75239546245102468e-13
6.03953571906360978e-13
5.36698536320954596e-13
4.73023224586203486e-13
4.14371967754927276e-13
3.62060778356602412e-13
3.16875387770467534e-13
2.79001355022337852e-13
2.47814348886469006e-13
2.21981458048758881e-13
1.99536816303103729e-13
1.79727317486813769e-13
1.61141786113714819e-13
1.43666009598793277e-13
1.27904199142383913e-13
1.13272425019714308e-13
9.91205604937916472e-14
8.58330982978474821e-14
7.40623628338878168e-14
6.42583123510256311e-14
5.61430338761315436e-14
4.9023770830392897e-14
4.25197288205505868e-14
3.64951103930071195e-14
3.09067472876293101e-14
2.58199252192274164e-14
2.12217659987156659e-14
1.71178532378748392e-14
1.36632143309197383e-14
1.10063659435031559e-14
9.00969271107460149e-15
7.4139360071475656e-15
6.04644101356565949e-15
4.80071249650563354e-15
3.64783235892317915e-15
2.65316565916787488e-15
1.89865662182008925e-15
1.37861537304185115e-15
1.01043412880194923e-15
7.41484640467126966e-16
5.44886616672236008e-16
4.01978568515117393e-16
2.9920753121487058e-16
2.25475063351068967e-16
1.72302980788865481e-16
1.32841202268041821e-16
1.02346832247878679e-16
7.84284758513504261e-17
5.91977769101220956e-17
4.54935460958211636e-17
3.36946138178502038e-17
2.24897210555926384e-17
)
;
    }
    inertWall
    {
        type            zeroGradient;
    }
    inlet
    {
        type            fixedValue;
        value           uniform 0;
    }
    outlet
    {
        type            zeroGradient;
    }
    defaultFaces
    {
        type            empty;
    }
}


// ************************************************************************* //
