/*--------------------------------*- C++ -*----------------------------------*\
  =========                 |
  \\      /  F ield         | OpenFOAM: The Open Source CFD Toolbox
   \\    /   O peration     | Website:  https://openfoam.org
    \\  /    A nd           | Version:  8
     \\/     M anipulation  |
\*---------------------------------------------------------------------------*/
FoamFile
{
    version     2.0;
    format      ascii;
    class       volScalarField;
    location    "0.2";
    object      CH3COCH3(s);
}
// * * * * * * * * * * * * * * * * * * * * * * * * * * * * * * * * * * * * * //

dimensions      [0 0 0 0 0 0 0];

internalField   uniform 0;

boundaryField
{
    reactingWall
    {
        type            fixedValue;
        value           nonuniform List<scalar> 
75
(
2.87278288389518723e-20
5.48159657072768276e-20
7.91554007023962188e-20
1.01503030273467971e-19
1.21824192804422577e-19
1.40016873844482619e-19
1.55917709105123146e-19
1.69343832770083836e-19
1.79999178750617833e-19
1.88188724214399727e-19
1.93980703994241513e-19
1.97032757816935028e-19
1.97300720856514585e-19
1.95565239025408143e-19
1.92305250678410357e-19
1.87002938789403268e-19
1.79268499409385537e-19
1.69069467589374221e-19
1.55360580405919536e-19
1.38623551840245229e-19
1.20986631114714066e-19
1.03854110419533591e-19
8.81272742186421011e-20
7.42290396143161705e-20
6.29969296083902882e-20
5.63846579245083346e-20
4.8930556138695076e-20
4.14634056430482528e-20
3.40504586319283462e-20
2.74755133366177e-20
2.22847346729571988e-20
1.82487318158996649e-20
1.53015949797332543e-20
1.30482007440642221e-20
1.11934043945182641e-20
9.58780234480441992e-21
8.16559393682081132e-21
6.91246780764435999e-21
5.80886353427143461e-21
4.85268809770991551e-21
4.04728263653209141e-21
3.37866656289313669e-21
2.82242349858277059e-21
2.34736602943645281e-21
1.94044388254783507e-21
1.59213716833815539e-21
1.29350856902941007e-21
1.03958122004922015e-21
8.24392733937181283e-22
6.45297605107532769e-22
5.01783803773778142e-22
3.91938962071874998e-22
3.08603287564532105e-22
2.42793595977537475e-22
1.89245154059051566e-22
1.44887797026094284e-22
1.08342401614188974e-22
7.93737626199858885e-23
5.79387469429697671e-23
4.2838653326582161e-23
3.22191478598860262e-23
2.45843584970987379e-23
1.91241806739129715e-23
1.52352425629617878e-23
1.24784509951951772e-23
1.05415434681465999e-23
9.1949038667679399e-24
8.26822150826055967e-24
7.63842985171737829e-24
7.22395777026665975e-24
6.9771380306036009e-24
6.85372421046080965e-24
6.82389157304940033e-24
6.83502868466838562e-24
6.90211707415851489e-24
)
;
    }
    inertWall
    {
        type            zeroGradient;
    }
    inlet
    {
        type            fixedValue;
        value           uniform 0;
    }
    outlet
    {
        type            zeroGradient;
    }
    defaultFaces
    {
        type            empty;
    }
}


// ************************************************************************* //
