/*--------------------------------*- C++ -*----------------------------------*\
  =========                 |
  \\      /  F ield         | OpenFOAM: The Open Source CFD Toolbox
   \\    /   O peration     | Website:  https://openfoam.org
    \\  /    A nd           | Version:  8
     \\/     M anipulation  |
\*---------------------------------------------------------------------------*/
FoamFile
{
    version     2.0;
    format      ascii;
    class       volScalarField;
    location    "0.2";
    object      gas::cTot;
}
// * * * * * * * * * * * * * * * * * * * * * * * * * * * * * * * * * * * * * //

dimensions      [0 -3 0 0 1 0 0];

internalField   nonuniform List<scalar> 
1800
(
0.0291546075228728725
0.0291545978198794291
0.0291545928062357344
0.0291545920459144112
0.0291545913005668254
0.0291545895059983733
0.0291545874809959436
0.0291545858111227074
0.0291545844203216428
0.0291545830446685687
0.0291545815978806432
0.0291545801412097794
0.0291545787321264641
0.0291545773674558271
0.0291545760206363969
0.0291545990567454276
0.0291545958108125926
0.029154592674373328
0.029154591419753309
0.0291545905449818663
0.0291545890514200191
0.0291545872538679224
0.0291545856583386442
0.0291545842975153499
0.0291545829624628855
0.0291545815592214735
0.0291545801370415442
0.0291545787560462642
0.0291545774213036527
0.0291545761109481341
0.0291545987421477047
0.0291545962943137137
0.0291545932079634411
0.0291545914359225868
0.0291545904411878234
0.0291545891351320148
0.0291545874560314687
0.0291545858462405084
0.0291545844494729076
0.0291545831143667673
0.0291545817293113116
0.0291545803199706674
0.029154578944304177
0.0291545776155643956
0.0291545763221946544
0.0291545952164900188
0.029154593902000453
0.0291545920245974352
0.029154590683171
0.0291545897537510042
0.0291545885988851068
0.0291545871159216534
0.0291545856215684081
0.0291545842761934092
0.0291545829893381896
0.0291545816603659656
0.029154580299044025
0.0291545789588026176
0.0291545776611511279
0.029154576401238308
0.0291545948690881442
0.0291545940490436813
0.0291545924455988391
0.0291545909205511156
0.0291545897596223805
0.0291545885956440952
0.0291545872135980204
0.0291545857637276751
0.0291545844007585868
0.0291545830994228636
0.0291545817805679806
0.0291545804356092876
0.0291545791046571717
0.0291545778119544179
0.0291545765574411954
0.0291545931951834106
0.0291545925131868819
0.0291545913045149381
0.0291545901346650684
0.0291545891619395779
0.0291545881387054694
0.0291545869036617632
0.029154585559878491
0.0291545842502403361
0.0291545829864604984
0.0291545817114424004
0.0291545804082874171
0.0291545791070476033
0.0291545778337528455
0.0291545765925247564
0.0291545929607796052
0.0291545925655807281
0.0291545916125139255
0.029154590436410225
0.0291545893184663799
0.0291545882122478811
0.0291545869875540799
0.0291545856679663908
0.0291545843532854156
0.0291545830736809029
0.0291545817951661297
0.0291545804978344814
0.0291545792009776823
0.0291545779273810202
0.0291545766842976582
0.0291545921631449767
0.0291545917215204516
0.0291545908281071811
0.0291545898029223274
0.0291545888324053967
0.0291545878458719376
0.0291545867265383431
0.0291545854905799276
0.0291545842274778498
0.0291545829793195682
0.0291545817307160178
0.0291545804625168888
0.0291545791895268316
0.0291545779301760934
0.0291545766951683792
0.0291545921204512774
0.0291545918379921831
0.0291545911197889328
0.0291545901280902686
0.0291545890775802355
0.0291545880061490244
0.0291545868515906866
0.0291545856017867422
0.0291545843185083836
0.0291545830500834421
0.0291545817883265626
0.0291545805175868027
0.0291545792386154641
0.0291545779744029343
0.0291545767348202305
0.0291545918277784609
0.0291545914765291292
0.0291545906975093153
0.0291545897195269882
0.029154588745158156
0.0291545877587335335
0.0291545866716125361
0.0291545854707510183
0.0291545842237562851
0.0291545829819626172
0.0291545817392558151
0.0291545804849289089
0.0291545792194203846
0.0291545779642415591
0.029154576730010217
0.0291545918345137954
0.0291545914835074915
0.0291545907029253544
0.0291545897260359413
0.0291545887470091684
0.0291545877634832862
0.0291545866791630796
0.0291545854789242789
0.0291545842291981924
0.0291545829843746947
0.0291545817473217658
0.0291545804929493058
0.0291545792279990258
0.0291545779705804954
0.0291545767362346719
0.0291545921231123641
0.0291545918417649638
0.0291545911229012245
0.0291545901330232705
0.0291545890810394857
0.0291545880105275011
0.0291545868543397375
0.0291545856045500561
0.0291545843228797411
0.029154583053653562
0.02915458179362505
0.0291545805208677303
0.0291545792441847938
0.0291545779793006242
0.0291545767396206162
0.0291545921634352376
0.0291545917218050364
0.0291545908294759022
0.0291545898018309192
0.029154588830210014
0.0291545878444538845
0.0291545867294055704
0.0291545854935450072
0.029154584226055727
0.0291545829768582281
0.0291545817293746082
0.0291545804643420017
0.029154579188741158
0.0291545779286759392
0.0291545766938605885
0.0291545929610226434
0.029154592565862586
0.0291545916129070173
0.0291545904358215535
0.0291545893174144921
0.0291545882117730665
0.0291545869887434028
0.0291545856691732899
0.0291545843527230286
0.0291545830724231833
0.0291545817943756197
0.0291545804981107499
0.029154579200463316
0.0291545779264719349
0.0291545766835411765
0.0291545931953523865
0.029154592513369916
0.0291545913046265502
0.0291545901343448974
0.0291545891614365602
0.0291545881385361257
0.0291545869041574916
0.029154585560354742
0.0291545842499666419
0.0291545829857852747
0.0291545817109147357
0.0291545804081214978
0.0291545791066482388
0.0291545778332010369
0.0291545765921048389
0.0291545948692136236
0.0291545940491533852
0.0291545924456209186
0.0291545909203714398
0.0291545897593734164
0.0291545885955672712
0.0291545872137896553
0.0291545857638881301
0.0291545844005790776
0.0291545830990162375
0.0291545817801823065
0.0291545804353431533
0.0291545791043325356
0.0291545778116023176
0.0291545765572107859
0.0291545952165747461
0.0291545939020659318
0.0291545920245984032
0.0291545906830704103
0.0291545897536190958
0.0291545885988335508
0.0291545871159749267
0.0291545856215888952
0.0291545842760449966
0.0291545829890573413
0.0291545816600654595
0.0291545802987808085
0.029154578958538846
0.0291545776609169159
0.0291545764011211725
0.0291545987422084617
0.0291545962943549342
0.029154593207959309
0.0291545914358627284
0.0291545904411095423
0.0291545891350860065
0.0291545874560205746
0.0291545858461978689
0.0291545844493350456
0.0291545831141455936
0.0291545817290617577
0.0291545803197319868
0.0291545789440850987
0.0291545776153986427
0.0291545763221432996
0.0291545990567903812
0.0291545958108418019
0.0291545926743700806
0.029154591419714309
0.029154590544927167
0.0291545890513737159
0.0291545872538270003
0.0291545856582673471
0.029154584297381065
0.0291545829622699634
0.0291545815590008271
0.0291545801368242111
0.0291545787558562391
0.0291545774211762684
0.0291545761109327818
0.0291546075229100095
0.0291545978199024038
0.029154592806232664
0.0291545920458847647
0.0291545913005222153
0.0291545895059520596
0.0291545874809435134
0.0291545858110404815
0.0291545844201886555
0.0291545830444872138
0.0291545815976734408
0.0291545801410045997
0.0291545787319514652
0.0291545773673475908
0.029154576020640012
0.0291545749668273083
0.0291545741428342851
0.0291545732030122698
0.0291545721546903058
0.0291545711355318364
0.0291545701975492941
0.0291545693050477353
0.0291545684226450462
0.0291545675494354894
0.0291545666986323324
0.0291545658752492762
0.0291545650750359327
0.0291545642931781319
0.0291545635281905864
0.029154562780146321
0.0291545620485090182
0.0291545613319487765
0.0291545606291495236
0.0291545599392189804
0.0291545592615137794
0.0291545585953847108
0.0291545579401503926
0.0291545572951883714
0.0291545566598462626
0.0291545560330122543
0.0291545554125132167
0.0291545547969583735
0.0291545541977671005
0.0291545536992965405
0.0291545535022696006
0.0291545535113860305
0.0291545534581160136
0.0291545530550194505
0.0291545523085894528
0.0291545517257804955
0.0291545512514227827
0.0291545507144846013
0.0291545501392199216
0.0291545500579276466
0.0291545502075517965
0.0291545503469260343
0.0291545503832918163
0.0291545500225385383
0.0291545492466164131
0.029154548386790758
0.0291545477404224831
0.0291545476069889724
0.0291545476829987785
0.0291545475572155925
0.0291545472909029157
0.0291545469931947937
0.029154546737169041
0.0291545465980374043
0.0291545466841360672
0.0291545464265464821
0.0291545457028524503
0.0291545450839298878
0.0291545446264288577
0.0291545442180805477
0.0291545438480316534
0.0291545434957863892
0.0291545431482446264
0.029154542796163075
0.0291545424309123911
0.0291545420480255751
0.0291545416407721462
0.0291545412094207056
0.0291545407412872049
0.0291545401402107385
0.0291545398396636443
0.029154540115913747
0.0291545402927225888
0.0291545399861505988
0.0291545392015358368
0.0291545383712303145
0.0291545750470363699
0.0291545741952692859
0.029154573264215243
0.0291545722378981527
0.0291545712304467595
0.0291545702945686484
0.029154569403723362
0.0291545685245109577
0.0291545676534193422
0.0291545668023758253
0.0291545659773509991
0.0291545651751625064
0.0291545643910582838
0.0291545636233245739
0.0291545628722303315
0.0291545621377488004
0.0291545614190397567
0.0291545607151685836
0.0291545600256283566
0.0291545593502777547
0.0291545586891699057
0.0291545580427102075
0.0291545574121351951
0.0291545567998534455
0.0291545562086282378
0.0291545556380991104
0.0291545550827506696
0.0291545545554131591
0.0291545541482073518
0.0291545535587811946
0.0291545529911542249
0.0291545526324790728
0.0291545524997409676
0.029154552543394989
0.0291545521795247287
0.0291545517989731488
0.0291545516436448535
0.0291545515530888498
0.0291545507496526017
0.0291545502094820129
0.0291545500764965777
0.0291545497680077877
0.0291545494508861983
0.0291545492867234628
0.029154549136524429
0.0291545489673448489
0.0291545483282926038
0.0291545478036645891
0.0291545475918039247
0.0291545473352964567
0.0291545470260665025
0.0291545467809254805
0.0291545465118552768
0.0291545460893516718
0.0291545456866823087
0.0291545455944582609
0.0291545452710503493
0.0291545447133088401
0.0291545442784373089
0.0291545439270731004
0.0291545435693586069
0.0291545432327557988
0.0291545428924848346
0.0291545425536012363
0.0291545422230693116
0.0291545419004814038
0.0291545416454751898
0.0291545415143655215
0.0291545414970697386
0.0291545407101912284
0.0291545397879581468
0.0291545394840150157
0.0291545393266420053
0.0291545390955494678
0.0291545386204287368
0.029154575210403752
0.0291545742919370951
0.0291545733682021524
0.0291545723734901313
0.0291545713756727991
0.0291545704311685361
0.0291545695319095875
0.0291545686494045116
0.0291545677755030569
0.0291545669192745383
0.0291545660878535333
0.0291545652797196297
0.0291545644903603539
0.0291545637176533652
0.029154562961735242
0.0291545622226470069
0.0291545614993776528
0.0291545607904568974
0.0291545600946139655
0.0291545594107944853
0.0291545587378511106
0.0291545580743070021
0.0291545574181343754
0.0291545567662400001
0.0291545561134315748
0.0291545554502984777
0.0291545547592238427
0.0291545540145800829
0.029154553239346518
0.0291545530579968432
0.0291545534247540546
0.0291545537617440079
0.0291545534399983396
0.0291545524315011025
0.029154551555524183
0.0291545510150064933
0.029154550612811754
0.029154550196681079
0.0291545500846840042
0.0291545500733603608
0.0291545499461799557
0.0291545499702315358
0.0291545500547340901
0.0291545494603984226
0.029154548504893317
0.0291545477518810152
0.0291545476498879901
0.0291545477264501599
0.0291545475726395845
0.0291545472717113507
0.0291545469571500709
0.0291545466497340408
0.0291545463857660857
0.0291545462375333818
0.0291545463451965414
0.0291545459175287305
0.029154545069454748
0.0291545445697168198
0.0291545442479317213
0.0291545438740696342
0.0291545435083752115
0.0291545431852534599
0.0291545427856506716
0.0291545423856636975
0.0291545419699220827
0.0291545414816004149
0.0291545409009860874
0.0291545402817060643
0.0291545397747351789
0.0291545398945801948
0.0291545398658483897
0.0291545400081615093
0.0291545401590794923
0.029154539543419105
0.0291545385403118029
0.0291545752595364083
0.0291545743127751625
0.0291545734221028696
0.029154572473727141
0.0291545714943789655
0.0291545705484399439
0.029154569649212158
0.0291545687733629558
0.0291545679063443773
0.0291545670530366507
0.0291545662217183484
0.0291545654131167356
0.0291545646231982439
0.0291545638492579605
0.0291545630912457866
0.0291545623496723104
0.0291545616241835129
0.0291545609139180206
0.0291545602183359148
0.02915455953747699
0.0291545588717943005
0.0291545582221133075
0.0291545575899153642
0.0291545569777616198
0.029154556389622853
0.0291545558313542827
0.0291545553126947576
0.0291545548491758608
0.0291545544395117734
0.0291545539640189477
0.0291545534215641097
0.0291545528439164751
0.0291545524584566826
0.0291545522726520748
0.0291545520392161826
0.0291545517230495134
0.0291545512128434173
0.0291545506576960378
0.0291545503495444849
0.0291545501863760756
0.0291545501714749258
0.0291545499625674928
0.0291545494031638479
0.0291545489255539449
0.0291545484751090551
0.0291545480300153884
0.0291545478051503
0.0291545477002300192
0.0291545475146018605
0.0291545472349496182
0.0291545469484540062
0.0291545466592574437
0.0291545464560785603
0.0291545463013085995
0.0291545459017758177
0.0291545454200411967
0.0291545450727922657
0.0291545447248682428
0.0291545443569435937
0.0291545440383741312
0.0291545436379839484
0.0291545433320602593
0.0291545428941068531
0.0291545425371867867
0.0291545422310404805
0.0291545419100025308
0.0291545415474334726
0.0291545410880244028
0.0291545404838217011
0.0291545401624442764
0.0291545402012269063
0.0291545398994591115
0.0291545392747726943
0.029154538820953816
0.0291545385030633451
0.0291545753979126111
0.0291545744255797233
0.0291545735386437715
0.02915457260514542
0.0291545716271827265
0.0291545706719468188
0.029154569766316453
0.0291545688900247089
0.0291545680228535546
0.0291545671660453296
0.0291545663292066548
0.0291545655154322181
0.0291545647212587931
0.0291545639433884139
0.0291545631814882043
0.029154562436360703
0.0291545617079373154
0.0291545609952407365
0.0291545602972729558
0.0291545596133804749
0.0291545589429378638
0.0291545582848929535
0.0291545576374104311
0.0291545569974292901
0.0291545563601586025
0.0291545557194723554
0.0291545550717941492
0.0291545544299017315
0.0291545538591929145
0.029154553521360628
0.0291545534180840844
0.0291545533411101988
0.0291545530593460937
0.0291545524568544538
0.0291545518317667257
0.0291545512564561592
0.0291545508266213907
0.029154550510032233
0.0291545503832833959
0.0291545503353669785
0.0291545501467184547
0.0291545498485012641
0.0291545495541330121
0.0291545491518253944
0.0291545485933717013
0.0291545481903562713
0.0291545479738343355
0.0291545477629535088
0.0291545475084945931
0.0291545472349000849
0.0291545469837672273
0.029154546782476233
0.0291545465433070312
0.0291545462553404536
0.0291545459876373682
0.0291545456148891644
0.0291545451168729423
0.0291545446318286078
0.0291545442724023378
0.0291545440717300083
0.0291545434396602368
0.0291545432365175883
0.0291545427579498508
0.0291545423496932347
0.029154541961655487
0.0291545415076211213
0.0291545410324770791
0.0291545406175846393
0.0291545403347082469
0.0291545400841582529
0.029154539972818954
0.0291545398189985462
0.0291545396582351644
0.0291545392706449857
0.0291545386532510928
0.0291545754254523594
0.0291545744490840017
0.0291545735734681996
0.0291545726592079939
0.0291545716948916622
0.0291545707453233355
0.0291545698435465434
0.029154568972751687
0.0291545681108009401
0.0291545672567775221
0.0291545664208923902
0.029154565607800928
0.0291545648144692221
0.0291545640371069434
0.0291545632750975017
0.029154562529488226
0.0291545618005842819
0.0291545610876843206
0.0291545603901185585
0.0291545597078884319
0.0291545590415804301
0.0291545583922290484
0.029154557761601127
0.0291545571527540466
0.0291545565705213679
0.0291545560217601266
0.0291545555145374946
0.0291545550523453906
0.0291545546174619974
0.0291545541528172095
0.0291545536375598831
0.0291545531438275225
0.029154552655560894
0.0291545522932748977
0.0291545519782670758
0.0291545517034627645
0.0291545513598671854
0.0291545509479842306
0.0291545506010982974
0.0291545503343230289
0.0291545500640278468
0.029154549736600352
0.0291545493228445585
0.029154548910284666
0.0291545485700523792
0.029154548256411332
0.029154548024730928
0.0291545478027094504
0.0291545475256765607
0.0291545472341802683
0.0291545469451978713
0.0291545466486166777
0.0291545463520249612
0.0291545460429792382
0.0291545456780282451
0.0291545452925647784
0.0291545449397857086
0.0291545445971189351
0.0291545442692050134
0.0291545439972903907
0.0291545436809263099
0.0291545433859115195
0.029154542911754032
0.0291545425512150652
0.0291545422392803129
0.0291545418820384657
0.0291545415200459568
0.0291545411210201479
0.0291545407091167719
0.0291545403727304156
0.029154540105567426
0.0291545397717361369
0.0291545393446820816
0.0291545388712448686
0.0291545384738766331
0.0291545755153606694
0.0291545745324660356
0.029154573655357674
0.029154572745127047
0.0291545717829578485
0.0291545708306033477
0.0291545699242595456
0.0291545690506504543
0.029154568187137634
0.029154567330917959
0.02915456649186874
0.0291545656755011068
0.0291545648792896107
0.0291545640992817885
0.0291545633346648805
0.0291545625866262391
0.0291545618557487105
0.0291545611414559189
0.0291545604430060029
0.0291545597601765641
0.0291545590930607119
0.0291545584415459358
0.029154557804896921
0.0291545571810374916
0.0291545565652529086
0.0291545559506710961
0.029154555335313654
0.0291545547357455713
0.0291545542024990688
0.0291545537921555804
0.0291545534949968731
0.0291545531982495033
0.0291545528808069415
0.0291545524605841648
0.0291545519819494947
0.0291545514812438268
0.0291545510503433102
0.0291545507381963317
0.0291545505200102237
0.029154550313519715
0.0291545500686601032
0.0291545497749428964
0.0291545494051857965
0.0291545490449692767
0.0291545487404649868
0.0291545483918137886
0.0291545480945992752
0.0291545478210329147
0.0291545475348272722
0.0291545472435199571
0.0291545469621379456
0.0291545466916327441
0.0291545464119787219
0.0291545461114776396
0.0291545457891112664
0.0291545454225425431
0.0291545450151143686
0.0291545446086273995
0.0291545442386920081
0.0291545438440786488
0.0291545437655827723
0.0291545432780476975
0.0291545428234811464
0.0291545424302866972
0.029154542038637439
0.0291545415677070194
0.0291545411407745717
0.0291545407298212551
0.0291545403868780813
0.029154540166319725
0.0291545399513965901
0.0291545396897057024
0.029154539428639676
0.0291545391001883925
0.0291545386579168085
0.0291545755258081837
0.0291545745441103774
0.0291545736727905104
0.0291545727702375544
0.0291545718142722371
0.0291545708663780712
0.0291545699626210852
0.0291545690921100192
0.0291545682323320794
0.0291545673790122167
0.0291545665415234509
0.0291545657260583735
0.0291545649307169141
0.0291545641515354829
0.0291545633874754975
0.0291545626397317487
0.0291545619090782561
0.0291545611950924169
0.029154560497139187
0.0291545598152258591
0.0291545591499868459
0.0291545585025196966
0.0291545578750640882
0.0291545572720675536
0.0291545566985296108
0.0291545561554591715
0.0291545556391062215
0.0291545551440338425
0.0291545546804659536
0.0291545542132628267
0.0291545537245776511
0.0291545532501334102
0.0291545527945576595
0.029154552372325556
0.0291545520073684811
0.029154551706526588
0.0291545514104943129
0.0291545510645121603
0.0291545506984597462
0.0291545503302373735
0.0291545499841496421
0.0291545496129231273
0.0291545492244580338
0.0291545487944339134
0.0291545487166269442
0.0291545483581779064
0.029154548070604757
0.0291545478010241457
0.0291545475295475441
0.0291545472346788348
0.0291545469306089926
0.0291545466199811393
0.0291545462944468557
0.0291545459532136508
0.0291545455873548388
0.029154545218875963
0.0291545448480481084
0.0291545444550225102
0.0291545440817270914
0.0291545437672537031
0.0291545439838114886
0.0291545434689900532
0.0291545430031353095
0.0291545426357664381
0.0291545422606929797
0.0291545418854888341
0.0291545415403654355
0.0291545411548338324
0.0291545407055089981
0.0291545403836276362
0.0291545400737152523
0.0291545397301292836
0.0291545393919475579
0.0291545389719643222
0.029154538538701355
0.0291545755645219035
0.0291545745820934767
0.0291545737081399248
0.0291545728060029312
0.0291545718515101374
0.0291545709013027905
0.0291545699954159805
0.0291545691229068947
0.0291545682617524969
0.0291545674069210656
0.0291545665674476824
0.0291545657499887173
0.0291545649530213571
0.0291545641725122727
0.0291545634072109122
0.0291545626582956213
0.0291545619266800962
0.0291545612120496442
0.0291545605137946556
0.029154559831909007
0.0291545591668242315
0.0291545585187038027
0.0291545578880422936
0.0291545572789800624
0.0291545566889250575
0.0291545561039998659
0.0291545554990543555
0.0291545548710277665
0.0291545543384691651
0.0291545539010688408
0.0291545535350190184
0.0291545531925086684
0.0291545528283201696
0.0291545524414799882
0.0291545520237704095
0.0291545515844001402
0.0291545511759490478
0.0291545508512386017
0.0291545506078377641
0.0291545504103174549
0.0291545501352737553
0.0291545497979985718
0.0291545496401579875
0.0291545493769169647
0.0291545490644678738
0.0291545486924921736
0.0291545483264488495
0.0291545479749619058
0.0291545476106827642
0.02915454726642926
0.0291545469577210205
0.0291545466539622523
0.029154546340468851
0.0291545460208447148
0.0291545456646496344
0.0291545453032664159
0.0291545449254649487
0.0291545445095942116
0.0291545439447444613
0.0291545431712975749
0.0291545445500467695
0.0291545435726780142
0.0291545429589882138
0.0291545425674441597
0.0291545420721073707
0.0291545416190546712
0.0291545412485599738
0.0291545408809162042
0.0291545403526522091
0.0291545400876959404
0.0291545398717339803
0.0291545396273038999
0.0291545393668191967
0.0291545390438690925
0.0291545386423430267
0.0291545755597670125
0.0291545745777657093
0.0291545737080141816
0.029154572808546577
0.0291545718537614441
0.0291545709056543131
0.0291545700015686388
0.029154569129380116
0.0291545682698220038
0.0291545674167384972
0.0291545665786928851
0.02915456576250431
0.0291545649667191535
0.0291545641872671402
0.0291545634228216194
0.0291545626745701135
0.0291545619435016785
0.0291545612293716422
0.029154560531673375
0.029154559850740034
0.0291545591884837772
0.0291545585479528642
0.029154557929812825
0.0291545573329423345
0.0291545567717838988
0.029154556284307416
0.0291545559058620438
0.0291545556083928382
0.0291545552285998495
0.0291545547842394191
0.0291545543030393879
0.0291545537974969154
0.0291545532904788247
0.0291545528051723318
0.0291545523480591373
0.0291545519070627972
0.0291545514710107798
0.0291545510377012838
0.0291545506043398607
0.029154550214770595
0.0291545498683792523
0.02915454961729343
0.0291545492909641574
0.0291545489890955613
0.0291545487172575474
0.0291545484284603876
0.029154548154884441
0.0291545478316225966
0.029154547503797746
0.0291545472144509356
0.0291545469124744674
0.029154546596525957
0.0291545462648330443
0.0291545459169170774
0.0291545455485297776
0.029154545172398131
0.0291545447894514392
0.0291545444583408038
0.0291545441188485431
0.029154543821712009
0.0291545438831565459
0.029154543587862413
0.0291545435837073791
0.029154543096572446
0.0291545421926524932
0.0291545417777012809
0.0291545415726032521
0.0291545414637093062
0.0291545416961639034
0.0291545412715586115
0.0291545406040803028
0.029154540005436845
0.0291545394687671398
0.0291545389641954256
0.0291545385549344463
0.0291545755692155621
0.0291545745886701048
0.0291545737152621304
0.0291545728146960052
0.0291545718637707257
0.0291545709145687552
0.0291545700079333635
0.0291545691377697001
0.0291545682780513862
0.0291545674242835451
0.0291545665856959881
0.0291545657689397421
0.0291545649726513319
0.0291545641927425554
0.0291545634278849164
0.0291545626792571108
0.0291545619478091045
0.0291545612332211115
0.0291545605348112365
0.0291545598524516024
0.0291545591861253998
0.0291545585354585808
0.0291545579007039882
0.029154557279039945
0.0291545566648236526
0.0291545560673109813
0.0291545555280764458
0.0291545550705337164
0.029154554616971657
0.0291545541483407347
0.0291545536889859964
0.0291545532496134754
0.0291545528277235809
0.0291545524189339433
0.0291545520416664969
0.0291545517132143737
0.0291545514060439562
0.0291545510747526805
0.0291545507434692944
0.029154550405021077
0.0291545501077836375
0.0291545498015713667
0.029154549367728138
0.0291545489704992423
0.0291545486527811683
0.0291545483579081569
0.029154548074157495
0.0291545478112507674
0.029154547543736295
0.0291545472494976997
0.0291545469496504485
0.029154546640589446
0.029154546324425594
0.0291545459928119199
0.0291545456256659709
0.0291545452620479532
0.0291545449120319267
0.0291545445722751935
0.0291545442970663551
0.0291545439806282711
0.029154543576764249
0.0291545431024407449
0.0291545425201186724
0.0291545417805434866
0.0291545416124124254
0.0291545413367939772
0.0291545409477128419
0.0291545406260894403
0.0291545404017670498
0.0291545402319062612
0.0291545399882167204
0.0291545397401665254
0.0291545394738043986
0.0291545391650461852
0.029154538799514948
0.0291545755701981754
0.029154574586645849
0.0291545737131116145
0.0291545728106303859
0.029154571855718462
0.0291545709065449965
0.0291545700003329085
0.0291545691284865009
0.029154568267686462
0.0291545674129224039
0.0291545665734688104
0.0291545657559878595
0.0291545649589989957
0.029154564178485335
0.0291545634132026402
0.0291545626642958321
0.0291545619326051345
0.0291545612177249586
0.0291545605189173947
0.0291545598359378294
0.02915455916884023
0.0291545585175894961
0.0291545578825515954
0.0291545572651786995
0.0291545566683632552
0.0291545560828157801
0.0291545554869680756
0.0291545548948819594
0.0291545543785613689
0.0291545539488556223
0.0291545535720470102
0.0291545532038837325
0.029154552826881671
0.0291545524325847426
0.0291545520148705113
0.0291545515657928959
0.0291545511374388076
0.0291545507894856656
0.029154550518697836
0.0291545502687393654
0.0291545499962043882
0.0291545496755557902
0.0291545493701922398
0.0291545490707999129
0.0291545487639425852
0.0291545484541120038
0.0291545481710928645
0.0291545478381635206
0.0291545475549828438
0.0291545472645616081
0.0291545469742710318
0.0291545466490159381
0.0291545462965415968
0.0291545459149538597
0.0291545455101450759
0.0291545451374527476
0.0291545448280787454
0.0291545445924344185
0.0291545444030791231
0.0291545441877820929
0.0291545441353564666
0.0291545438904543819
0.0291545433175383374
0.0291545433269292699
0.0291545436288595111
0.029154543332633464
0.0291545427514590845
0.0291545420043912429
0.029154540915407038
0.0291545402833305566
0.0291545398726914748
0.0291545394856376379
0.0291545391600784923
0.0291545388470374894
0.0291545384700873794
0.0291545755254661483
0.0291545745458568969
0.0291545736728831689
0.0291545727703128275
0.0291545718160820672
0.0291545708667500618
0.0291545699625258871
0.0291545690922260028
0.0291545682327484339
0.0291545673798018386
0.0291545665427225542
0.0291545657276853186
0.0291545649328014689
0.0291545641541187048
0.0291545633905898154
0.0291545626433449244
0.0291545619130430082
0.0291545611991425695
0.0291545605009169463
0.0291545598182994178
0.0291545591518584737
0.029154558502729612
0.0291545578733609957
0.0291545572685794341
0.0291545566934766701
0.029154556149165671
0.0291545556304702441
0.0291545551334556272
0.0291545546553743928
0.0291545541756559057
0.0291545536912296913
0.0291545532271956925
0.0291545527669944786
0.0291545523622754009
0.0291545520096785221
0.0291545517180702395
0.0291545514222770752
0.0291545510753525063
0.0291545507080571663
0.0291545503587050669
0.0291545500281779023
0.0291545496869912678
0.0291545493252599597
0.0291545489612729317
0.0291545486284281626
0.0291545483360342791
0.0291545480722201246
0.029154547810173289
0.0291545475505246357
0.0291545472467229921
0.0291545469375699001
0.0291545466379117373
0.0291545463245195188
0.0291545460212771085
0.0291545457799810698
0.0291545454857173592
0.0291545450057200707
0.029154544777662935
0.029154544324748545
0.0291545439012919558
0.0291545435394756358
0.029154543179037009
0.0291545428534161731
0.029154542596365015
0.0291545419854528642
0.0291545415602533844
0.0291545412610964214
0.0291545409630933582
0.0291545407377177442
0.0291545404392090611
0.0291545401224889734
0.0291545397736014053
0.0291545394045979386
0.0291545390014903739
0.0291545385266839298
0.0291545755151984276
0.029154574533018885
0.0291545736556927115
0.0291545727455529841
0.0291545717838517307
0.0291545708311949543
0.0291545699247132903
0.0291545690512767935
0.0291545681880960618
0.0291545673323305755
0.029154566493820009
0.0291545656780589912
0.0291545648825335957
0.029154564103310833
0.0291545633395640172
0.0291545625923853059
0.0291545618621947694
0.0291545611482540469
0.0291545604497188554
0.0291545597663153515
0.0291545590980751973
0.0291545584447746656
0.0291545578055086574
0.0291545571782198636
0.0291545565594193909
0.0291545559455185337
0.0291545553392379628
0.0291545547615452878
0.0291545542574328138
0.0291545538671529048
0.0291545535521890269
0.0291545532400854443
0.0291545528821392126
0.0291545524237477073
0.0291545519414160743
0.0291545514445528016
0.0291545510065188487
0.0291545506729335539
0.0291545504397718765
0.029154550245082185
0.0291545500055664722
0.0291545497228677883
0.0291545494241288415
0.0291545491052304373
0.0291545487445330175
0.0291545483885567447
0.0291545480982397832
0.0291545478259212787
0.029154547562403578
0.0291545472976751548
0.0291545470041044003
0.0291545467101820034
0.029154546374580214
0.0291545460115941561
0.0291545456579689194
0.0291545453872525569
0.0291545446974065675
0.0291545444812995429
0.0291545442885564991
0.0291545440473204472
0.0291545437323841965
0.0291545433864255146
0.0291545430721852107
0.0291545426106658741