/*--------------------------------*- C++ -*----------------------------------*\
  =========                 |
  \\      /  F ield         | OpenFOAM: The Open Source CFD Toolbox
   \\    /   O peration     | Website:  https://openfoam.org
    \\  /    A nd           | Version:  8
     \\/     M anipulation  |
\*---------------------------------------------------------------------------*/
FoamFile
{
    version     2.0;
    format      ascii;
    class       volScalarField;
    location    "0.2";
    object      gas::MW;
}
// * * * * * * * * * * * * * * * * * * * * * * * * * * * * * * * * * * * * * //

dimensions      [1 0 0 0 -1 0 0];

internalField   nonuniform List<scalar> 
1800
(
29.2637880557518812
29.2637880557518812
29.2637880557518812
29.2637880557518812
29.2637880557518812
29.2637880557518812
29.2637880557518528
29.2637880557514656
29.2637880557470673
29.2637880557027223
29.2637880553104495
29.2637880522693692
29.2637880316518171
29.263787910672864
29.2637873296464903
29.2637880557518812
29.2637880557518812
29.2637880557518812
29.2637880557518812
29.2637880557518812
29.2637880557518812
29.2637880557518741
29.2637880557518102
29.2637880557510783
29.2637880557442855
29.2637880556881811
29.2637880552789262
29.2637880526468876
29.2637880378657975
29.2637879690093889
29.2637880557518812
29.2637880557518812
29.2637880557518812
29.2637880557518812
29.2637880557518812
29.2637880557518812
29.2637880557518812
29.2637880557518706
29.2637880557517427
29.26378805575062
29.2637880557419443
29.2637880556819958
29.2637880553140732
29.2637880533270121
29.2637880443319993
29.2637880557518812
29.2637880557518812
29.2637880557518812
29.2637880557518812
29.2637880557518812
29.2637880557518812
29.2637880557518812
29.2637880557518812
29.2637880557518635
29.2637880557516716
29.2637880557503429
29.2637880557416068
29.2637880556905046
29.2637880554253051
29.2637880542591873
29.2637880557518812
29.2637880557518812
29.2637880557518812
29.2637880557518812
29.2637880557518812
29.2637880557518741
29.2637880557518812
29.2637880557518812
29.2637880557518741
29.2637880557518528
29.2637880557516503
29.2637880557503891
29.2637880557433725
29.2637880557083712
29.2637880555587806
29.2637880557518812
29.2637880557518812
29.2637880557518812
29.2637880557518812
29.2637880557518812
29.2637880557518812
29.2637880557518812
29.2637880557518741
29.2637880557518812
29.2637880557518812
29.2637880557518386
29.2637880557516432
29.26378805575062
29.2637880557457848
29.263788055725918
29.2637880557518812
29.2637880557518812
29.2637880557518812
29.2637880557518812
29.2637880557518884
29.2637880557518812
29.2637880557518812
29.2637880557518812
29.2637880557518812
29.2637880557518741
29.2637880557518706
29.2637880557518102
29.2637880557515722
29.2637880557505738
29.263788055746808
29.2637880557518812
29.2637880557518812
29.2637880557518812
29.2637880557518812
29.2637880557518812
29.2637880557518812
29.2637880557518812
29.2637880557518884
29.2637880557518812
29.2637880557518812
29.2637880557518706
29.2637880557518351
29.2637880557516894
29.2637880557511316
29.2637880557492061
29.2637880557518812
29.2637880557518884
29.2637880557518812
29.2637880557518812
29.2637880557518812
29.2637880557518812
29.2637880557518812
29.2637880557518812
29.2637880557518812
29.2637880557518812
29.2637880557518706
29.2637880557518457
29.2637880557517036
29.263788055751192
29.2637880557494512
29.2637880557518812
29.2637880557518812
29.2637880557518884
29.2637880557518812
29.2637880557518812
29.2637880557518812
29.2637880557518812
29.2637880557518812
29.2637880557518812
29.2637880557518812
29.2637880557518741
29.2637880557518386
29.2637880557516965
29.2637880557511814
29.2637880557494157
29.2637880557518812
29.2637880557518812
29.2637880557518812
29.2637880557518812
29.2637880557518812
29.2637880557518812
29.2637880557518812
29.2637880557518812
29.2637880557518812
29.2637880557518812
29.2637880557518812
29.2637880557518386
29.2637880557517036
29.2637880557511814
29.2637880557494086
29.2637880557518812
29.2637880557518884
29.2637880557518812
29.2637880557518884
29.2637880557518884
29.2637880557518812
29.2637880557518812
29.2637880557518884
29.2637880557518812
29.2637880557518812
29.2637880557518706
29.2637880557518386
29.2637880557517036
29.2637880557511849
29.2637880557494334
29.2637880557518812
29.2637880557518812
29.2637880557518812
29.2637880557518812
29.2637880557518812
29.2637880557518812
29.2637880557518812
29.2637880557518812
29.2637880557518812
29.2637880557518812
29.2637880557518706
29.2637880557518386
29.2637880557516965
29.2637880557511743
29.2637880557493837
29.2637880557518812
29.2637880557518812
29.2637880557518812
29.2637880557518812
29.2637880557518884
29.2637880557518812
29.2637880557518812
29.2637880557518812
29.2637880557518812
29.2637880557518812
29.2637880557518706
29.263788055751828
29.2637880557516716
29.2637880557510357
29.2637880557487442
29.2637880557518812
29.2637880557518741
29.2637880557518812
29.2637880557518812
29.2637880557518884
29.2637880557518812
29.2637880557518812
29.2637880557518812
29.2637880557518812
29.2637880557518812
29.2637880557518635
29.2637880557517676
29.2637880557513164
29.2637880557492238
29.2637880557407755
29.2637880557518812
29.2637880557518812
29.2637880557518812
29.2637880557518812
29.2637880557518812
29.2637880557518812
29.2637880557518812
29.2637880557518812
29.2637880557518812
29.2637880557518635
29.2637880557517676
29.2637880557511671
29.263788055747824
29.2637880557311831
29.2637880556599193
29.2637880557518812
29.2637880557518812
29.2637880557518812
29.2637880557518812
29.2637880557518812
29.2637880557518812
29.2637880557518812
29.2637880557518812
29.2637880557518706
29.2637880557517605
29.2637880557509646
29.2637880557457919
29.2637880557155015
29.2637880555580097
29.2637880548641682
29.2637880557518741
29.2637880557518812
29.2637880557518812
29.2637880557518812
29.2637880557518812
29.2637880557518812
29.2637880557518812
29.2637880557518706
29.2637880557517747
29.2637880557509185
29.2637880557443459
29.2637880556990311
29.2637880554212764
29.2637880539223438
29.2637880471477132
29.2637880557518812
29.2637880557518812
29.2637880557518812
29.2637880557518812
29.2637880557518812
29.2637880557518812
29.2637880557518741
29.2637880557518031
29.2637880557510606
29.2637880557441257
29.263788055687165
29.2637880552732099
29.2637880526212761
29.2637880377996069
29.2637879692611271
29.2637880557518812
29.2637880557518812
29.2637880557518812
29.2637880557518812
29.2637880557518812
29.2637880557518812
29.2637880557518564
29.2637880557514833
29.2637880557472343
29.2637880557044632
29.2637880553266818
29.2637880524023259
29.263788032612446
29.2637879168709318
29.2637873648404252
29.2637859473812085
29.2637820194592955
29.263771159195656
29.2637423226219759
29.2636694540355293
29.26349544046586
29.2631047754367977
29.2622833381307501
29.2606697686639947
29.2577141285296314
29.2526838163031684
29.2448921298685498
29.2335120974790144
29.2176502338101187
29.196643147322618
29.1702141727810478
29.1385094519591519
29.1019652614123139
29.0610650607619121
29.0161333949729432
28.9673050734069477
28.9146880713629066
28.8586040034291216
28.7997620487483772
28.7394715337127344
28.6795368885817119
28.6221145433343231
28.5687229630113499
28.5203582354148111
28.4764831083801475
28.4335530579542919
28.3920264665080531
28.356055287614975
28.3272633634792541
28.3018102761101531
28.279940399938134
28.2616220496892119
28.2462076918946714
28.2328984680086634
28.2164616390548488
28.1961101786567312
28.1740545569426253
28.1546283635121739
28.1401019530416399
28.1278123896007095
28.1167843320656878
28.1064501307868788
28.0957382961363855
28.0856823766557362
28.0772336146728598
28.070071247308821
28.0635460451325933
28.0570050903281967
28.0508415550871959
28.04366956109806
28.0389019016710321
28.0339888879242309
28.0309267890825318
28.0280869975301599
28.0254633328773366
28.0230512425659022
28.0211015608272831
28.0194553232319379
28.0181056504453778
28.01704156398743
28.0162353765866463
28.0156400656495208
28.0152059101523747
28.0149042704130373
28.0146977391572705
28.0145299589432994
28.0143784693459672
28.0142497622781086
28.014179064664873
28.014140282584389
29.263787813903047
29.2637873882026156
29.2637862454032032
29.2637832794839099
29.2637758961780428
29.2637583803468786
29.2637189861821376
29.2636352969432032
29.2634677246475228
29.2631520542444505
29.262605717297955
29.2617225140665376
29.2603565080815358
29.2583332499548163
29.2554600320386911
29.251542233617279
29.2464003745267682
29.2398809677544627
29.2318571716515336
29.2222217777815132
29.2108813563587972
29.1977608499760848
29.1828218303895923
29.1661057902612484
29.1477217518636849
29.1276197643778971
29.10586215033371
29.0842282244409098
29.0655727989951558
29.0476491391533358
29.0291290245677942
29.0094015870619586
28.9856479944928118
28.9583198537939417
28.9299027974173129
28.8972377447720596
28.8598951106284822
28.829852752895551
28.799644065109284
28.7632132257674371
28.7182537736595123
28.6671616009356178
28.6266805118402416
28.5855356174955553
28.5479233497525229
28.5178093113753022
28.485624368356774
28.4492655934140224
28.4145832843912736
28.3837024192674079
28.3567800635773217
28.3341977540652259
28.3075292870946562
28.2719577272374174
28.2362347696730076
28.2041150328643297
28.1770131231079972
28.1548842480714328
28.1362932955932976
28.1212267190668435
28.1119912730691688
28.1009105932972716
28.0880381066011182
28.0735533419950194
28.0596571682771483
28.0480745015776698
28.039570686264824
28.0329475498221115
28.0281032915049693
28.0247767298147927
28.0220831138335988
28.019823617650129
28.018097137514939
28.0168324679373271
28.0159129056805334
29.2637880247617517
29.2637879725621133
29.2637878359700281
29.2637874890561243
29.2637866391921513
29.2637846418724727
29.2637801619319369
29.2637706095583603
29.2637512991633031
29.2637150480922941
29.2636518704434749
29.2635464486613941
29.2633779218866543
29.2631190788305844
29.2627361922966749
29.262189593050703
29.2614348584463926
29.2604242089170441
29.2591076532876286
29.2574337154665152
29.2553501986987321
29.2528056950706805
29.2497515361924734
29.2461508483498953
29.2419940255493813
29.2372501040404416
29.2318498723176319
29.2261526873133697
29.2211031639794321
29.2173150585399206
29.2136898130355078
29.2088427187309527
29.2019240847741841
29.1944151073844544
29.1861514229146799
29.1767430404760582
29.1672817084129719
29.1577917058158
29.1473375180743375
29.1347658307272326
29.1200772505007528
29.1011178933632806
29.0745074898003963
29.0462828167502849
29.0204191137430456
28.9952811155979511
28.9653851521203904
28.9292816923715854
28.8899775121471585
28.8499446846691789
28.8120532556307865
28.7766157324823837
28.7399191742051201
28.702238235567421
28.6593998088515391
28.6115313720906634
28.5579536846012303
28.4998899654454547
28.4399450760943644
28.3800707614314227
28.3330927030702995
28.3103252912268921
28.293635565811762
28.2735264878264978
28.2479256105769139
28.2162556090356738
28.1801891821266253
28.1439723073178456
28.111428136852286
28.0874419574863161
28.0702623181299096
28.0567637052227106
28.0455120818151578
28.0372276792887867
28.0306977895562213
29.2637880517907263
29.2637880453840715
29.2637880290435035
29.2637879884667029
29.2637878908496241
29.263787664268019
29.2637871591444494
29.2637860819730875
29.263783903292488
29.2637798976110268
29.2637727903270566
29.2637606748629153
29.2637408032177611
29.2637093670731296
29.2636612918442296
29.2635900734372818
29.2634876776967801
29.2633445024823722
29.2631493888839813
29.2628896718819433
29.2625513008581031
29.2621191661833251
29.2615773238757448
29.2609104389462118
29.2601074764173745
29.2591605968589512
29.2580646012132775
29.2568465383399108
29.2555882812543899
29.25433966147191
29.2531064174356992
29.2518030249323893
29.2502956423959652
29.2486484813205116
29.2467789231979687
29.2444513628451652
29.2420314083453974
29.2398980915896196
29.2373236619247798
29.2343140123971104
29.2302399821249352
29.2240919884512103
29.2148889162414243
29.204215502399979
29.1936420584724701
29.182109115718486
29.1683555367167777
29.1517167450593249
29.1316266461383293
29.1078704274500488
29.0805791282416166
29.0504276279586335
29.0186956779369076
28.9840811222782797
28.9483950883643821
28.9116759629220894
28.8706919868947054
28.8185378925350051
28.7499940878467086
28.666289513788719
28.5730053131601096
28.516220710066424
28.4934847631598274
28.4707932531525998
28.444817868148256
28.4119813245642483
28.3699378056490055
28.3194962666275174
28.2640862844476182
28.206613939258844
28.1629418235352276
28.1287700945102372
28.100533440845652
28.079944932835371
28.0637626971346918
29.2637880552484226
29.263788054461525
29.2637880524996845
29.2637880477266137
29.2637880364391947
29.2637880105707353
29.2637879533219269
29.2637878315510953
29.2637875935506528
29.2637871524187361
29.2637863617379814
29.2637849931799181
29.2637827034608229
29.2637789939878807
29.2637731646099546
29.2637642634469408
29.2637510356723851
29.2637318727666873
29.2637047675408439
29.2636672796507824
29.2636165080987638
29.263549109444206
29.2634612337667761
29.2633485646517961
29.2632071504217954
29.2630336009816077
29.2628245548381578
29.2625829917833506
29.2623182527427019
29.2620316201774706
29.2617155872563686
29.2613445770231024
29.2609096491143639
29.2604098323431998
29.259846835972283
29.2591880114972298
29.2583986819817667
29.2575341292027566
29.2565610994690211
29.2552456553077818
29.2532936709766425
29.2504084032133989
29.2460813087750751
29.2406977634772218
29.2348379224742949
29.2284051255955646
29.2207230362227222
29.211433921690908
29.2000904291153134
29.1862736277383057
29.169550481942121
29.1495282656539985
29.1256504294252956
29.0978690290213748
29.0686123106154604
29.039524193405061
29.0073533691477117
28.9636012589560679
28.9029156833079242
28.8184638860692921
28.7073320992991974
28.6396200049191734
28.6131816335398952
28.588256262959483
28.5611053805739417
28.5279236120999258
28.4856323408496266
28.4341339966889102
28.3718581018153166
28.2987520463032922
28.2387320861181657
28.1899178907472887
28.147863709385387
28.1169152441685846
28.0926172624847901
29.2637880556855947
29.2637880555857492
29.263788055342669
29.2637880547638751
29.2637880534199901
29.2637880503840861
29.2637880437325926
29.2637880299188922
29.263788003568461
29.2637879545749229
29.2637878661739492
29.263787711418594
29.2637874483378013
29.2637870132826237
29.2637863129363254
29.2637852140574779
29.2637835318705228
29.2637810140500676
29.2637773256722298
29.263772040261582
29.2637646228089103
29.2637544289827005
29.2637406671850009
29.2637222449724774
29.2636977741572579
29.2636663631243188
29.2636280402113442
29.2635817344354514
29.263525175784995
29.2634525652887696
29.2633604576984965
29.2632389872071954
29.2630728853229805
29.2628633003822216
29.2625996888411493
29.2622471802838682
29.261781082564017
29.2611923590141103
29.2604192250758288
29.2592741361904736
29.2575768683030049
29.2550485792243968
29.2512108021808359
29.2466737549580422
29.2418306935063015
29.2364392185240689
29.2301628416159218
29.2226399951453608
29.2136015015472701
29.2027025525276791
29.1894768659717769
29.1733403634571218
29.153836153110344
29.1312928134257056
29.107581880957639
29.0819818087898945
29.048836951776245
29.0024469625303816
28.9372572868530256
28.8450687097865988
28.7307821000908312
28.6793707975018108
28.6521453011031753
28.6253644491673214
28.5955174452971583
28.5591326645653751
28.5146822570589791
28.4614315283938311
28.3960261806286098
28.3204396282768833
28.2579776127014561
28.2061810290354309
28.1611330484913402
28.1273846824742542
28.1007346085879384
29.2637880557394681
29.2637880557220456
29.2637880556813244
29.2637880555878205
29.2637880553774892
29.2637880549145564
29.2637880539219708
29.2637880519793789
29.2637880483283119
29.2637880415998275
29.2637880294791231
29.2637880081475501
29.2637879715215377
29.2637879096060018
29.2637878075551008
29.2637876424912875
29.2637873826910955
29.2637869784197875
29.2637863552065873
29.2637854233035597
29.263784067936534
29.2637821609943494
29.2637794715676307
29.2637755797983701
29.2637700344709479
29.263762430524892
29.2637520144871459
29.2637372266827853
29.2637161820356795
29.2636859913241487
29.2636422897738022
29.2635785524074308
29.2634851490948833
29.263348039765372
29.263146564352077
29.2628497881197909
29.2624101525208076
29.2617741849879209
29.2608310736211727
29.2593910033339704
29.2571673289687588
29.2536963113222299
29.248882810030981
29.2452169066564345
29.2411314666542701
29.2363910823588746
29.2305331902010543
29.2233807157893288
29.214765519227047
29.204387329615983
29.1918045154866412
29.1767052441064862
29.159161030447823
29.139718922797524
29.1180639269243677
29.089999124729701
29.0506070808702077
28.9954731688038301
28.917731240848763
28.8045874705482241
28.7116754088462329
28.6792383279297383
28.6512719151552098
28.6235001804275058
28.5912796139154999
28.5515365631378302
28.5049616500129552
28.4501786772649154
28.3827727097498652
28.3095235847394235
28.2493073795850265
28.1992927687005803
28.1555119508653711
28.1224014243470251
28.0964093797276
29.2637880557456178
29.2637880557374785
29.2637880557192815
29.2637880556792496
29.2637880555926095
29.2637880554086571
29.2637880550360876
29.2637880543512381
29.2637880531007006
29.2637880508488664
29.2637880468522305
29.2637880398850001
29.2637880278210858
29.2637880072594143
29.2637879727868508
29.2637879158671055
29.263787823185023
29.2637876741353153
29.2637874370620317
29.2637870629493655
29.2637865100485115
29.2637857074957282
29.2637844843303192
29.2637826233267972
29.2637797918887301
29.2637754838132729
29.2637689244518846
29.2637589189386382
29.2637436135753859
29.2637201120758235
29.2636838531728287
29.2636275877611247
29.2635396760345472
29.2634011979982951
29.2631809931640312
29.2628271378763074
29.2622527913955288
29.2613133477021314
29.2597589229214101
29.2570579734444678
29.2548565745598879
29.2525512109598829
29.2490244614378483
29.2439207023364496
29.2392094030835743
29.2348681209931236
29.2297793235506767
29.2234414598594761
29.2153465358086777
29.2052566055001002
29.1931028990984132
29.1790951218439609
29.1633062100736247
29.1452476326136498
29.1219347650022762
29.08883030251965
29.0420725522032548
28.9758090475651002
28.8819954399863903
28.7621675147364542
28.7003386624579235
28.6731910118251463
28.6469351063080815
28.6183709946126221
28.5842166857361448
28.5427668692519561
28.4951208637596913
28.4393927437457847
28.3709600264066353
28.301187434735926
28.2435137106950229
28.1949484966954884
28.1516251273664011
28.1186225739963085
28.0930342804501159
29.2637880557462431
29.2637880557390453
29.2637880557231256
29.2637880556884653
29.2637880556142704
29.2637880554589991
29.2637880551639178
29.2637880546296252
29.2637880536726804
29.2637880519809315
29.2637880490136304
29.2637880438009113
29.2637880347823192
29.2637880193959319
29.2637879935015128
29.2637879504998608
29.263787880009307
29.2637877659083223
29.2637875834716539
29.2637872953236489
29.2637868594095245
29.2637861909264707
29.2637851641565518
29.2637835781746212
29.2637811118278215
29.263777251245557
29.2637711706956267
29.2637615352013398
29.2637461736913487
29.2637215354746267
29.2636817853657156
29.2636172920330502
29.2635120926847279
29.2633396062375901
29.2630553336324404
29.2625849417842474
29.2618077922881916
29.2605360638629683
29.2584273373320514
29.2568951595584927
29.2552787374414116
29.2528894644913997
29.2492398890389431
29.2440756231133108
29.2373578998358639
29.2309959406316331
29.2263650958145575
29.2206665680541349
29.2136606575035529
29.204670721546762
29.1935711976471524
29.1805785713249648
29.165348942646844
29.1464395824329543
29.1196120981041595
29.0813551667789696
29.027148792669589
28.9500929997596401
28.8382427354881052
28.7364701867041354
28.6991330435266114
28.6729855089747652
28.647320324824193
28.6184086577272261
28.5832258359626508
28.5414888526255233
28.4940138172384962
28.4389458454989956
28.3718545357926892
28.3069048222954756
28.2516945652549119
28.2041204952242204
28.1597771144405584
28.1251485690995828
28.0981301701577841
29.263788055746172
29.2637880557388961
29.2637880557228236
29.2637880556878756
29.2637880556133894
29.263788055461994
29.26378805518749
29.2637880546947606
29.263788053822573
29.2637880522766416
29.2637880495382419
29.2637880447497132
29.2637880364774041
29.2637880223661675
29.2637879986072633
29.2637879591292815
29.2637878943816396
29.2637877895167655
29.263787621664008
29.26378735576127
29.2637869379551141
29.2637862845442314
29.2637852632362723
29.263783661189656
29.2637811309385221
29.2637771001497278
29.2637706221170433
29.263760127793077
29.2637430115237009
29.2637149378932406
29.2636686801129002
29.2635921769610192
29.2634652725194577
29.2632540695123069
29.262900654961328
29.2623081676285857
29.2613535820779269
29.2599424016832081
29.258980108296317
29.2578631985642623
29.2562273829641022
29.2536099930444813
29.2497210099981011
29.2443433290286805
29.2373813037633958
29.2288965330649155
29.2214247358758747
29.2164419026099118
29.2103908103761434
29.2030090477306885
29.1935590810284715
29.1818899452236309
29.1672692478752751
29.1476425571180577
29.1190498738688994
29.0780067622811771
29.0194151378247867
28.9369164743974636
28.8229102416625267
28.7513056131357203
28.7246340313588107
28.6997855033927607
28.6730229986897101
28.6427772447413886
28.6042764681424622
28.5572387102265566
28.5025511413429129
28.440208996547728
28.3696655676321789
28.3073349515255082
28.2548752765973106
28.2108527570304624
28.1678964914112662
28.1327339797310323
28.104630723803286
29.2637880557461649
29.2637880557388783
29.2637880557227774
29.2637880556877938
29.263788055613837
29.2637880554749721
29.2637880552234009
29.2637880547770415
29.263788053970071
29.2637880525298293
29.2637880499924385
29.263788045571598
29.2637880379538338
29.2637880249775861
29.2637880031344189
29.2637879667979419
29.2637879070338016
29.2637878097571118
29.2637876528521446
29.2637874016053132
29.2637870013358565
29.2637863652818346
29.2637853543918816
29.2637837432588412
29.263781162359642
29.2637770001585658
29.2637702376293518
29.2637591695220713
29.2637409355544094
29.2637107344667129
29.2636605104124996
29.2635767555931636
29.2634367044334383
29.263201247611228
29.262803619155239
29.2621590752262293
29.261237077009973
29.2606243047730956
29.2598909869972168
29.2586685234584785
29.2567146724314924
29.2537845825012575
29.2496576444555139
29.2441850413645277
29.2372366821898844
29.2287347601232383
29.2186434238393566
29.2116150042603095
29.2062296069257705
29.1998131623509352
29.191752616581482
29.1813530196922244
29.1675032859653527
29.1474160694695392
29.1177731060415539
29.0749898536077112
29.0136171187145635
28.9246990661025798
28.8324999969224045
28.792348243446181
28.7703941259810385
28.7460585665199559
28.7168266129029597
28.6862244537310715
28.6428996480556215
28.5874088040841698
28.522131215108633
28.4481856006094027
28.3744456419371787
28.3112737340017055
28.257134646889746
28.2124397632565476
28.1692857387904176
28.1333770834481527
28.1044097164766953
29.2637880557462253
29.2637880557389991
29.2637880557230119
29.2637880556883516
29.2637880556189245
29.2637880554908989
29.2637880552582388
29.2637880548355902
29.2637880540756647
29.2637880527279215
29.2637880503654415
29.2637880462691768
29.2637880392412626
29.2637880273063864
29.2637880072364673
29.2637879737950435
29.2637879185343408
29.2637878278706758
29.2637876799835936
29.2637874397746174
29.2637870505888387
29.2637864204840881
29.2637853992437691
29.2637837395578657
29.2637810312129751
29.2637765889885344
29.263769261169184
29.2637571022111267
29.2637368129823265
29.263702781003353
29.2636454570228928
29.2635487165338937
29.2633856682013835
29.2631093982767077
29.2626197857230466
29.2622232089494787
29.2618325871140428
29.2613404254934366
29.2605188429351024
29.2592064944656052
29.2571612167577015
29.2540765922191959
29.2496914496819258
29.2438240681773323
29.2364566909507637
29.2277397510815646
29.21795096461139
29.2068982953143923
29.201251258094814
29.1950595729160831
29.1876978354929797
29.1779688541434865
29.1643217450753589
29.143124980357495
29.1115071363560531
29.0654807748791129
29.0001776628017574
28.9101143584120805
28.8526394511730331
28.8303664572831764
28.8087359357137203
28.7876061126190557
28.7617988718299742
28.7239314211245009
28.6706000852664147
28.6026824021282451
28.5220401408550366
28.4387773017832224
28.3657669277721673
28.3030487830494302
28.2479588638676198
28.2034365132903133
28.1619172655493237
28.1271342843194176
28.098942231420402
29.263788055746069
29.2637880557386012
29.2637880557220527
29.2637880556862591
29.2637880556191305
29.2637880554969172
29.2637880552704743
29.263788054858658
29.2637880541215267
29.2637880528194501
29.2637880505459904
29.2637880466178686
29.2637880398953207
29.2637880284904881
29.2637880092947391
29.2637879772121323
29.26378792391316
29.2637878357993593
29.2637876906615446
29.2637874521618215
29.263787060673458
29.2637864179988334
29.263785361800668
29.2637836227793251
29.2637807527248412
29.2637760034074219
29.2637681224756321
29.2637550093870082
29.2637331379635093
29.2636965834874871
29.2636353741821189
29.2635323355024148
29.2633553403810396
29.2630345107502201
29.2627434504876156
29.2624693948170425
29.2621389680202704
29.2615979625982305
29.2607266047157566
29.2593602151435164
29.25726741690913
29.2541000882160134
29.249581127816608
29.2436005283035776
29.2361431402997241
29.2273088954170568
29.217258572673849
29.2062490042638458
29.196133857143419
29.1901557176077446
29.1829126416259506
29.1737119490634633
29.1599834794163577
29.1377736004549419
29.1037507808678058
29.0532293140071225
28.9780702481894252
28.9143433935812162
28.8916073607488109
28.8704280126538642
28.8488375320819017
28.8256081050787216
28.7948963424091602
28.7493934169128273
28.6820443431346668
28.5947954106581541
28.5010560641854696
28.4186842475782662
28.347170949273
28.2860941453018491
28.2330696521914568
28.1903964889403511
28.1525466003581926
28.119835281635762
28.092870285468404
29.2637880557443921
29.2637880557343344
29.2637880557115047
29.2637880556638166
29.263788055575592
29.2637880554068275
29.2637880550916556
29.2637880545142934
29.2637880534741619
29.2637880516282287
29.2637880483970214
29.2637880428132249
29.2637880332796847
29.2637880171853517
29.2637879902977396
29.263787945804971
29.2637878728054126
29.2637877539075326
29.2637875614053264
29.2637872511759127
29.2637867528848901
29.2637859539032732
29.2637846737302887
29.2637826242705401
29.2637793437053269
29.2637740733229244
29.2637655619516188
29.2637517525217952
29.2637293181967166
29.2636927821089152
29.2636331839140666
29.2635354142367667
29.2633745802916572
29.2631150478015698
29.2627200458481553
29.2624628113712575
29.2621749288878732
29.2617181131659336
29.2609765101668948
29.2598234100868915
29.2580694514142436
29.2554461745927306
29.2515933719208512
29.2461037964279029
29.2389085362356553
29.2301749867354701
29.2201693635727757
29.2089933031665865
29.1964314045545343
29.1832005132327197
29.1763573100790339
29.1680034448551524
29.1541712485986366
29.1312360522307046
29.095237822105485
29.0405579592893446
28.9671265143764742
28.9377058494641375
28.9162766836545302
28.8958353787657742
28.8741449783311772
28.8474397064334909
28.8066866807483564
28.7477819853952141
28.6648605598970683
28.5708034572649936
28.4848955060936397
28.408517616384156
28.3416084229273224
28.2831842539230998
28.2332205544884545
28.1903868408144511
28.1549516789042293
28.1219931371958971
28.0937391274003652
29.263788055723726
29.2637880556819603
29.2637880555825269
29.2637880553639
29.2637880549256941
29.2637880540674935
29.2637880524268787
29.263788049359885
29.2637880437419824
29.2637880336449854
29.2637880158246766
29.2637879849295111
29.2637879323054406
29.2637878442003192
29.2637876991039327
29.2637874639157438
29.2637870885809228
29.2637864980879634
29.2637855810928897
29.2637841761197031
29.2637820657687016
29.2637789276463209
29.2637742889385564
29.2637675045131012
29.2637577285323935
29.263743342011761
29.2637209228676376
29.2636823649173685
29.2636358467759585
29.263548891432464
29.2634491044201255
29.2633296453818126
29.2632010651334262
29.263055968580165
29.2628689940163724
29.2626282868319763
29.2623047897993409
29.2618264624403288
29.2611877543793817
29.2602614237048151
29.258911200513726
29.256974174900833
29.2542302129612395
29.2503874675463926
29.2450579219616316
29.2380834373763818
29.2304079239594685
29.2216446297045138
29.2102407645504307
29.1950032754511888
29.1742480496732632
29.1511086810037447
29.1300302674063865
29.1106468132736431
29.0739128751126081
29.0382765802312939
29.0029993736645118
28.9709492151072254
28.9423189861282211
28.9138823744315339
28.882816824969435
28.8416961294231449
28.7846455177337752
28.7059889221275029
28.6180386471992669
28.5339419222578954
28.4569013256906373
28.3877946624836426
28.3267291743914029
28.2725003662238059
28.2267965815482569
28.1848999255455226
28.1533559481456557
28.1207153462757624
28.0914079346689327
29.2637880555120162
29.2637880551392051
29.263788054227085
29.2637880521046796
29.2637880475936143
29.2637880386282418
29.263788021205503
29.2637879881332381
29.2637879267351479
29.2637878151316748
29.2637876164356037
29.2637872701093897
29.2637866795451451
29.2637856934288259
29.2637840782002456
29.263781483353597
29.2637774228295484
29.2637711797250333
29.263761658231715
29.2637472339986893
29.2637258304767194
29.2636935171435404
29.2636440254796071
29.2635686742967032
29.2635055829142843
29.2634255596855084
29.2633044874762618
29.2631206721573811
29.2628245343900666
29.2626187893892578
29.2623487646724101
29.2620663154783287
29.2617879453293241
29.2614973782265722
29.2611621786003795
29.2607761517710259
29.2602907520416977
29.2596526676300073
29.2589484562377358
29.2580360815820057
29.256734068512305
29.2549078286421818
29.2523924131275557
29.2489681889763347
29.2443628400901474
29.2382513705662817
29.230570386525347
29.2220476471917863