/*--------------------------------*- C++ -*----------------------------------*\
  =========                 |
  \\      /  F ield         | OpenFOAM: The Open Source CFD Toolbox
   \\    /   O peration     | Website:  https://openfoam.org
    \\  /    A nd           | Version:  8
     \\/     M anipulation  |
\*---------------------------------------------------------------------------*/
FoamFile
{
    version     2.0;
    format      ascii;
    class       volScalarField;
    location    "0.2";
    object      H(s);
}
// * * * * * * * * * * * * * * * * * * * * * * * * * * * * * * * * * * * * * //

dimensions      [0 0 0 0 0 0 0];

internalField   uniform 0;

boundaryField
{
    reactingWall
    {
        type            fixedValue;
        value           nonuniform List<scalar> 
75
(
5.48630225707355512e-08
5.33763724491711036e-08
5.16539548596787909e-08
4.97175809804102763e-08
4.79172876178909014e-08
4.61547211964616547e-08
4.42949409862853107e-08
4.22967806852939259e-08
4.02553523239565504e-08
3.81960037486888265e-08
3.61138223297547219e-08
3.4002174814529009e-08
3.18746658768110142e-08
2.97446308069924133e-08
2.75937502780373525e-08
2.54253004473550817e-08
2.32589577592516303e-08
2.11281317738968348e-08
1.90803061897328401e-08
1.71590267458839752e-08
1.53811878363234636e-08
1.37469348022538303e-08
1.22478671154342792e-08
1.08786915851758881e-08
9.63350947568064308e-09
8.48867399953328758e-09
7.435052439121906e-09
6.48594610196932216e-09
5.65234209943906793e-09
4.93715553119084569e-09
4.33745991275575329e-09
3.83919919553743038e-09
3.42162163090606018e-09
3.05687375381723087e-09
2.73387513724522255e-09
2.43298733443708675e-09
2.15360234541057615e-09
1.903446530239447e-09
1.67384499751817426e-09
1.4563897976061175e-09
1.25588031748458159e-09
1.07977153403856694e-09
9.32684353181095172e-10
8.10033098466941502e-10
7.02516124704823364e-10
6.0504725574827944e-10
5.15784408411705847e-10
4.34019676384337075e-10
3.60461470593771076e-10
2.94865254636615104e-10
2.37139658530315589e-10
1.89011183381353443e-10
1.51953963899793108e-10
1.23887499745736806e-10
1.0136189132020385e-10
8.21206476008901712e-11
6.48061131288910041e-11
4.90520390353160648e-11
3.56550859397730085e-11
2.55559187699420722e-11
1.85825202443094994e-11
1.36401586284133393e-11
1.00330372551923067e-11
7.39920422737335266e-12
5.48471164248659259e-12
4.10517070791396243e-12
3.11670274748825134e-12
2.39940370950744288e-12
1.8637628909066361e-12
1.45383009146599068e-12
1.13189939891211766e-12
8.73030154559201283e-13
6.88604043874437495e-13
5.28903762658147148e-13
3.805849427423364e-13
)
;
    }
    inertWall
    {
        type            zeroGradient;
    }
    inlet
    {
        type            fixedValue;
        value           uniform 0;
    }
    outlet
    {
        type            zeroGradient;
    }
    defaultFaces
    {
        type            empty;
    }
}


// ************************************************************************* //
