/*--------------------------------*- C++ -*----------------------------------*\
  =========                 |
  \\      /  F ield         | OpenFOAM: The Open Source CFD Toolbox
   \\    /   O peration     | Website:  https://openfoam.org
    \\  /    A nd           | Version:  8
     \\/     M anipulation  |
\*---------------------------------------------------------------------------*/
FoamFile
{
    version     2.0;
    format      ascii;
    class       volScalarField;
    location    "0.2";
    object      N2;
}
// * * * * * * * * * * * * * * * * * * * * * * * * * * * * * * * * * * * * * //

dimensions      [0 0 0 0 0 0 0];

internalField   nonuniform List<scalar> 
1800
(
0.92000000000000004
0.919999999999999929
0.919999999999999929
0.92000000000000004
0.919999999999999929
0.920000000000000151
0.920000000000001816
0.920000000000024909
0.920000000000289031
0.920000000002954232
0.920000000026548803
0.920000000209621249
0.920000001451858451
0.920000008747081321
0.920000043809173329
0.920000000000000151
0.92000000000000004
0.919999999999999929
0.919999999999999929
0.92000000000000004
0.92000000000000004
0.920000000000000373
0.920000000000004592
0.920000000000048224
0.920000000000456453
0.92000000000383042
0.920000000028464049
0.920000000187021105
0.920000001078175034
0.920000005232464169
0.92000000000000004
0.92000000000000004
0.919999999999999929
0.920000000000000151
0.920000000000000151
0.920000000000000151
0.920000000000000262
0.920000000000000928
0.920000000000008478
0.920000000000075646
0.92000000000059734
0.920000000004205232
0.920000000026365061
0.920000000146140806
0.920000000688715791
0.92000000000000004
0.92000000000000004
0.92000000000000004
0.92000000000000004
0.919999999999999929
0.92000000000000004
0.92000000000000004
0.920000000000000262
0.920000000000001372
0.920000000000012585
0.920000000000092744
0.920000000000618323
0.920000000003695084
0.920000000019676745
0.920000000089996939
0.92000000000000004
0.919999999999999929
0.919999999999999929
0.919999999999999929
0.92000000000000004
0.920000000000000151
0.92000000000000004
0.92000000000000004
0.920000000000000373
0.920000000000002038
0.92000000000001414
0.920000000000089968
0.920000000000512186
0.920000000002620388
0.920000000011637842
0.919999999999999929
0.920000000000000151
0.92000000000000004
0.920000000000000151
0.92000000000000004
0.92000000000000004
0.92000000000000004
0.92000000000000004
0.920000000000000151
0.920000000000000484
0.920000000000002482
0.920000000000014584
0.920000000000076201
0.920000000000366969
0.920000000001563345
0.919999999999999929
0.92000000000000004
0.92000000000000004
0.919999999999999929
0.919999999999999818
0.919999999999999929
0.919999999999999929
0.92000000000000004
0.920000000000000151
0.920000000000000373
0.920000000000001039
0.920000000000004148
0.92000000000001847
0.920000000000078422
0.920000000000304796
0.92000000000000004
0.919999999999999929
0.919999999999999929
0.919999999999999929
0.919999999999999929
0.919999999999999929
0.919999999999999929
0.919999999999999818
0.919999999999999929
0.920000000000000151
0.920000000000000706
0.920000000000002816
0.920000000000011586
0.920000000000045004
0.920000000000160245
0.92000000000000004
0.919999999999999818
0.919999999999999929
0.919999999999999929
0.92000000000000004
0.92000000000000004
0.920000000000000151
0.920000000000000151
0.920000000000000262
0.920000000000000262
0.920000000000000706
0.920000000000002593
0.920000000000010809
0.92000000000004134
0.920000000000145479
0.92000000000000004
0.919999999999999929
0.919999999999999818
0.919999999999999929
0.919999999999999929
0.92000000000000004
0.919999999999999929
0.919999999999999929
0.919999999999999929
0.92000000000000004
0.920000000000000595
0.920000000000002593
0.920000000000011031
0.920000000000041895
0.920000000000147589
0.92000000000000004
0.92000000000000004
0.919999999999999929
0.92000000000000004
0.920000000000000151
0.920000000000000151
0.919999999999999929
0.92000000000000004
0.919999999999999929
0.920000000000000151
0.920000000000000595
0.920000000000002593
0.92000000000001092
0.920000000000041895
0.920000000000147589
0.919999999999999929
0.919999999999999929
0.919999999999999929
0.919999999999999818
0.919999999999999818
0.919999999999999929
0.919999999999999929
0.919999999999999818
0.92000000000000004
0.920000000000000151
0.920000000000000706
0.920000000000002593
0.920000000000010809
0.920000000000041451
0.920000000000146034
0.919999999999999929
0.92000000000000004
0.92000000000000004
0.919999999999999929
0.919999999999999929
0.919999999999999929
0.919999999999999929
0.919999999999999929
0.919999999999999929
0.920000000000000151
0.920000000000000595
0.920000000000002705
0.920000000000011031
0.920000000000042339
0.920000000000149476
0.920000000000000151
0.92000000000000004
0.92000000000000004
0.919999999999999929
0.919999999999999818
0.919999999999999818
0.919999999999999929
0.919999999999999818
0.92000000000000004
0.920000000000000151
0.920000000000000706
0.920000000000002927
0.920000000000012474
0.920000000000050777
0.92000000000018789
0.920000000000000151
0.92000000000000004
0.92000000000000004
0.92000000000000004
0.919999999999999818
0.919999999999999929
0.919999999999999929
0.92000000000000004
0.92000000000000004
0.92000000000000004
0.92000000000000115
0.920000000000006701
0.920000000000034124
0.920000000000159801
0.920000000000668394
0.92000000000000004
0.919999999999999929
0.919999999999999929
0.919999999999999929
0.919999999999999929
0.919999999999999929
0.919999999999999929
0.92000000000000004
0.920000000000000151
0.92000000000000115
0.920000000000007145
0.920000000000043228
0.920000000000244067
0.920000000001246265
0.920000000005541829
0.92000000000000004
0.92000000000000004
0.92000000000000004
0.92000000000000004
0.919999999999999929
0.92000000000000004
0.92000000000000004
0.920000000000000151
0.920000000000000928
0.920000000000007478
0.920000000000055218
0.920000000000366636
0.920000000002190399
0.920000000011680474
0.92000000005352045
0.920000000000000151
0.92000000000000004
0.92000000000000004
0.920000000000000151
0.920000000000000151
0.920000000000000151
0.920000000000000151
0.920000000000000928
0.92000000000000659
0.920000000000057661
0.920000000000453011
0.920000000003180163
0.920000000019908781
0.92000000011025973
0.920000000518898964
0.92000000000000004
0.920000000000000151
0.920000000000000151
0.920000000000000151
0.92000000000000004
0.92000000000000004
0.920000000000000484
0.920000000000004814
0.920000000000049667
0.920000000000465779
0.920000000003891594
0.920000000028807552
0.920000000188562539
0.920000001082157626
0.920000005217287753
0.919999999999999929
0.92000000000000004
0.919999999999999929
0.92000000000000004
0.919999999999999929
0.92000000000000004
0.920000000000001594
0.920000000000024021
0.920000000000279039
0.920000000002849649
0.920000000025572806
0.920000000201619206
0.920000001393991962
0.92000000837342133
0.920000041686458658
0.920000127261848988
0.92000036453390055
0.920001020962579741
0.920002765092464592
0.920007175560294876
0.920017715924411505
0.920041398232944174
0.920091236424534276
0.920189224151403806
0.920368892570945674
0.920675029006965517
0.921149850134173498
0.921844303490266803
0.922813880273053888
0.924100569042542119
0.925723207717600083
0.927675003396155495
0.929931319177620286
0.932464398177785703
0.935256143773492643
0.938300312345172638
0.94159262801766741
0.945115698475073263
0.948827670611870788
0.952648135598067713
0.956463689078561496
0.960136183292260359
0.963565635490676087
0.966684508637430939
0.969519124996629844
0.972298611789170208
0.974999605005631209
0.977353663910264459
0.979238296387352714
0.980907288630228913
0.982345855424435199
0.983552065040547041
0.984567000550737648
0.985441927196770484
0.986519649513494579
0.987859347217032391
0.989317649129808352
0.990610099417595702
0.991577377662675841
0.992394527277805305
0.993127787387880212
0.993814606655970656
0.994526122896267961
0.995197745928834254
0.995762504808157756
0.99624114115045237
0.996676542318919889
0.997112595416660419
0.997524711511270423
0.998006732320254053
0.998324669175788548
0.998656107120031611
0.998861565085351177
0.999052045127181931
0.999227290558824865
0.999389506524057336
0.999520745335894967
0.999631442636538914
0.999722393356782257
0.999794237667176344
0.999848740441173889
0.999888998355876302
0.999918383212946571
0.999938819962036707
0.999952804962970343
0.999964106023447541
0.999974306510664213
0.9999830514777166
0.999987890198267393
0.999990514827800325
0.920000014594513082
0.920000040302129896
0.920000109353264928
0.920000288671994459
0.920000735356503174
0.920001795778827014
0.92000418243134896
0.920009256362842032
0.920019423567035033
0.920038590980757798
0.92007179009068496
0.920125500338935365
0.920208632082258116
0.920331853973616165
0.920506976746314209
0.920745963085163099
0.921059888572259178
0.921458275534115301
0.921949048719616915
0.922538965291299529
0.923233984552317311
0.924039004238930262
0.924956760129677868
0.925985168824546179
0.927117888147467428
0.9283581853282874
0.92970359955558235
0.931047168383726809
0.932208579276066374
0.933321644130087447
0.934473078542683244
0.935698805347637164
0.937172957991088462
0.93887860645390353
0.940653832098774956
0.942694981419568867
0.945039497866802969
0.946943396961668293
0.948844522391138812
0.951135627833374242
0.953975756922133877
0.95724058875536111
0.959831140029956065
0.962468417019719191
0.964896395813490737
0.966842153796691473
0.968908909393936368
0.971260950346609864
0.973518463047467031
0.975535250892432981
0.977297087989403068
0.978774336635327868
0.980501733663338815
0.982826093005911949
0.985177951920429784
0.987304327765664014
0.989103764695554388
0.990577751502004666
0.991816920871208874
0.99283592793950215
0.993447239587895381
0.994179698820711666
0.995026943567794309
0.995987865937082884
0.996916896923950691
0.997697280195757652
0.998271924566992652
0.998718738076184165
0.999046525067309177
0.999271276199651615
0.999452757294438165
0.999605458299796079
0.999722279160135452
0.999807946788876301
0.999870285803892478
0.920000001869667017
0.920000005021078815
0.920000013271764949
0.920000034238657394
0.920000085634312681
0.92000020649969283
0.920000477776546699
0.920001056596120192
0.920002227486638846
0.920004426973145217
0.920008262705677593
0.920014667271423781
0.920024911712730931
0.920040655355223835
0.920063956665964744
0.920097238995518651
0.920143218545788955
0.920204819281053576
0.920285102978905201
0.920387225189577607
0.920514390011223038
0.920669759851531544
0.920856340455302735
0.921076444073967493
0.921330717767802732
0.921621020756756892
0.921951804205869863
0.922302012817033501
0.922613592078979972
0.922847605809626215
0.923070168245526901
0.923365779974149925
0.923789776019249942
0.924251009949934144
0.924758166721816433
0.925336306917423079
0.925919757541183941
0.926503323596531647
0.927145047255899746
0.927917131745593537
0.92881820340944321
0.929980055235465897
0.931621964442310713
0.933376485334016293
0.934988242458544616
0.936548357612996041
0.938399750898041729
0.94064805571497323
0.943109886258251651
0.94562838900768198
0.94802337482814325
0.950266654101548203
0.952593749537310464
0.954984224107218171
0.957705446107242508
0.960754114716560248
0.964178382470124662
0.967910126824728656
0.971788261657897778
0.975683799528336171
0.978807367945193407
0.980362052707699605
0.981443567606644196
0.982748510462528979
0.98441045095680979
0.986477547369124741
0.988845671761891754
0.991247833455721428
0.993422205873962016
0.995042978254082056
0.99620162763447706
0.997110035341795986
0.99786984162800918
0.99842946495772178
0.998869863526096302
0.920000000238909155
0.920000000625566083
0.920000001612236162
0.920000004063623811
0.920000009964339727
0.92000002366872613
0.920000054238768739
0.92000011946910687
0.920000251479660469
0.920000494326524643
0.920000925451597507
0.920001660775944141
0.920002867486879872
0.920004777425728171
0.920007699709832538
0.920012030764702393
0.92001826052986535
0.920026974828444088
0.920038854721093369
0.920054673458122085
0.9200752893128884
0.920101625892397745
0.92013465880503098
0.920175331076840464
0.920224327494240768
0.920282133327607776
0.920349090645450785
0.920423617331081578
0.920500745352813787
0.92057729351677331
0.920652933313102606
0.920732659230138473
0.920824858630123755
0.920925678448663243
0.921039807822736423
0.921181904957105835
0.921330511174621059
0.921460892120125385
0.921617939958452093
0.921801295545644495
0.922047777158202075
0.922419411896423624
0.922978851120443977
0.92363435659409765
0.924284186455440082
0.924989834939452527
0.925831005138248453
0.926849753149619815
0.928081077938984089
0.929540589466376632
0.931222360937940419
0.933087401845159814
0.935055916476924542
0.937208171707305748
0.939438439551690374
0.941735153502935129
0.944291325816239646
0.947540543725862827
0.951833045293631441
0.957114072892162771
0.963126835562710282
0.966924904389135809
0.968413415167410196
0.969880766965567354
0.971545821886657723
0.973652891580716107
0.976358524883148005
0.979629387852751998
0.983239336770858507
0.987054148066242365
0.989974312698968184
0.99226161556776038
0.994162862059946528
0.995551073832980804
0.996640257398080709
0.920000000030352427
0.920000000077823121
0.920000000196227075
0.920000000484440417
0.920000001166366155
0.920000002730049893
0.92000000619252531
0.920000013561488861
0.920000027971401124
0.920000054692009295
0.920000102608398262
0.920000185584564312
0.920000324476283105
0.920000549591664107
0.920000903513431112
0.920001444161954063
0.920002247922875882
0.920003412749360927
0.920005060917866713
0.920007341121423239
0.920010430160252524
0.92001453184658788
0.920019880787196875
0.920026740697861389
0.920035354484968759
0.920045929853232303
0.920058676128821307
0.920073424604281431
0.920089602854238242
0.920107105014548621
0.920126390145068696
0.920149016975070122
0.920175554646673666
0.920206057096729868
0.920240390217967774
0.920280497021103483
0.920328557197527597
0.920381264307549962
0.920440304220573879
0.920519703121418287
0.920637490922545987
0.92081166879780052
0.92107307777574754
0.921401505446318159
0.921759857228975799
0.922152365525481188
0.922620550718574073
0.923186488334828192
0.923877849663271355
0.924720851149659295
0.925742527101608759
0.926967653198761621
0.928431683366027771
0.930142318227839549
0.931955350681472505
0.933760537087221953
0.935745810644608489
0.938436666133486641
0.942184503452391575
0.947427744905991909
0.95445776638406421
0.95897396602275875
0.960694310642073113
0.962296398849329604
0.964026456589052505
0.96613746314909088
0.96884002022301241
0.972142939371609893
0.976156651940009223
0.98093103252858993
0.98492006032248236
0.988166100870196629
0.990984568357393125
0.993065961334805736
0.99469827969152802
0.920000000003992846
0.920000000010010921
0.920000000024668307
0.920000000059586154
0.920000000140700491
0.920000000324036171
0.92000000072592103
0.920000001561051439
0.920000003154632928
0.920000006118676605
0.920000011468883772
0.920000020838659838
0.920000036773212515
0.920000063134424173
0.920000105587127637
0.920000172223220058
0.92000027426659281
0.92000042704881746
0.92000065094221728
0.92000097188326968
0.920001422403682545
0.920002041695011874
0.920002877758954396
0.920003996671023061
0.920005483231687293
0.920007393871506651
0.920009727342347539
0.92001254483310424
0.920015979977934939
0.92002038272496911
0.920025966882770496
0.920033321433395002
0.92004338434023325
0.920056110600271815
0.920072084001609336
0.920093414594631898
0.920121644161682073
0.920157303668834636
0.920203911816817044
0.920272899549859025
0.92037512115094311
0.920527510976159924
0.920759240319262151
0.921036452122767635
0.921332501581084595
0.921661320398870054
0.922043521889567619
0.922501552006663839
0.923052242481369856
0.92371654315090912
0.924523114104960575
0.925508151515447963
0.926700605358094176
0.928086467705836027
0.92954969366035789
0.931125171921777572
0.933153170026462586
0.935999067091488279
0.940010458197286125
0.94569006379242504
0.95300310652439979
0.956457369126066714
0.95819633851005781
0.959905014912884269
0.961802518563635855
0.964113583354976322
0.96695201727060287
0.970362027826414564
0.974558439685261124
0.979509557233101069
0.983642293568093962
0.987079776394469199
0.990094945988455821
0.992361860006486074
0.994151170907306869
0.920000000000745444
0.920000000001792273
0.92000000000424087
0.92000000000986526
0.920000000022524023
0.920000000050398503
0.920000000110196003
0.920000000227300441
0.920000000447457666
0.920000000853293254
0.920000001584569072
0.92000000287192063
0.920000005082667993
0.920000008820998527
0.920000014984680425
0.920000024958446239
0.920000040659748164
0.920000065088572239
0.920000102776531214
0.920000159166445286
0.920000241223972615
0.92000035669798419
0.92000051934392868
0.920000754510058028
0.920001089857200749
0.920001549980136613
0.920002179436490652
0.920003072539986699
0.920004342612288806
0.92000616339058483
0.920008797405116985
0.920012637137098022
0.920018262177230595
0.920026517882830519
0.920038648561180672
0.920056517780074468
0.920082987886487458
0.920121332739552322
0.920178115946049813
0.920264751657117963
0.92039843152582157
0.92060801047274321
0.920902604426703908
0.921127719089840258
0.921377284541474162
0.921665157827790904
0.922021041464810787
0.922456299091921839
0.922981128192639
0.923613673124174417
0.92438110928616557
0.925303713153105334
0.926377961799187855
0.92757284808485041
0.928901243036405422
0.930613366556583443
0.933021469204212028
0.936402864595109352
0.941197062103628634
0.948218274562377283
0.95433009968491711
0.95644591417609337
0.958247409710812681
0.96001484101270429
0.96206218284950773
0.964590910085894926
0.96757229559282365
0.971086059514164601
0.975419334647383618
0.980229229895784204
0.984217113457191539
0.987537884586432768
0.990468813001796122
0.992693394586988243
0.994439666743519579
0.920000000000374851
0.920000000000861906
0.920000000001951479
0.920000000004349783
0.920000000009541186
0.92000000002056781
0.920000000042914934
0.9200000000840034
0.920000000159043929
0.920000000294187492
0.920000000534081486
0.920000000952358787
0.920000001676743118
0.920000002911661063
0.920000004982621467
0.9200000084031007
0.920000013974087927
0.9200000229352292
0.920000037193162146
0.920000059703090511
0.920000093045214129
0.92000014138988262
0.920000215038793812
0.920000327049282918
0.920000497426187169
0.920000756613770898
0.920001151188054145
0.920001752977350429
0.92000267339342201
0.920004086479996652
0.920006266286363061
0.920009648272376301
0.920014931503647215
0.920023251987799995
0.920036479849630107
0.92005772877309433
0.920092203457103075
0.920148601119509579
0.92024216595723729
0.920405644671746792
0.920540783228790405
0.920680623260740405
0.920893613454055959
0.921198486683364237
0.92149998011880685
0.92176123685916167
0.922070809634017441
0.922455185934277777
0.922946770539503691
0.923560889536615859
0.924302600400408236
0.92516000410436694
0.926127155686061854
0.927232643398634093
0.928651609870952077
0.930669893508265678
0.933527954911578028
0.937590932043254943
0.943351889689603484
0.950983551278977601
0.95510195685017274
0.956849689704855622
0.958526300044220014
0.960340732438965339
0.962507545428976652
0.965152201536372045
0.968204909792818924
0.971783520764826325
0.976193619123204015
0.980784460647699863
0.98460437421533642
0.987827435087132
0.990726505816909353
0.992944361744227511
0.994664863701562596
0.920000000000337104
0.920000000000767426
0.920000000001719886
0.920000000003793894
0.920000000008233898
0.920000000017529573
0.920000000035203436
0.920000000067214163
0.920000000124555295
0.920000000225934866
0.920000000403763174
0.920000000716181932
0.920000001256783051
0.920000002179282461
0.920000003732185156
0.920000006311708862
0.920000010541360269
0.920000017389748015
0.92000002834274941
0.920000045642767827
0.920000071867519642
0.920000112079421117
0.920000173833286361
0.920000269192958187
0.920000417439898022
0.920000649429962958
0.920001014741001155
0.92000159351163413
0.920002516045402841
0.920003995412296716
0.920006381714374433
0.920010252732789024
0.920016566008813874
0.920026915917081967
0.920043969770153236
0.920072175429509365
0.920118754877931488
0.920195138030585502
0.920323508936166768
0.920417844622922532
0.92051629016003822
0.920659672811520169
0.92087964755447449
0.921191743387314244
0.921596796114897421
0.922001659573757348
0.922282499371945841
0.922629314583811033
0.92305414267864605
0.923600165073957258
0.924276620135933258
0.92507095020772856
0.926001102613206117
0.927153317649232367
0.928783067315568922
0.931115285152329664
0.934430735806931478
0.939168119823223346
0.946085528180516611
0.952678733907750708
0.95521766530622787
0.95686700840770289
0.958500418564180112
0.960335619053034883
0.962567946299342947
0.965233443578056627
0.968277001680262095
0.971815504596973634
0.976148098597381608
0.980422438523553597
0.98407287616665573
0.987222943035804934
0.990183048519490794
0.992507431710502819
0.994322986519138974
0.920000000000341434
0.920000000000776419
0.920000000001737983
0.920000000003828533
0.920000000008285745
0.920000000017349384
0.920000000033788012
0.920000000063305512
0.92000000011555727
0.920000000208191504
0.920000000372282356
0.920000000659234596
0.920000001155005021
0.920000002000857742
0.920000003425338497
0.920000005792909192
0.920000009677122588
0.920000015970040219
0.92000002604641995
0.920000042014751163
0.920000067114304376
0.920000106378553895
0.920000167758427079
0.920000264036388127
0.92000041606649674
0.920000658185430087
0.92000104718100173
0.920001677164319798
0.920002704412851258
0.920004388925921956
0.92000716405522609
0.920011753044511105
0.920019364993961197
0.920032034432253121
0.920053225708840072
0.920088639522395946
0.920145598335435744
0.920232876294578617
0.920291787105349091
0.920359557767088665
0.920457557422447281
0.920614848167771505
0.920849380632331238
0.92117493886767654
0.921597460025136539
0.922111558643825657
0.92258787239390283
0.922891192157350604
0.923260003039336974
0.923707801110833171
0.924282307241319767
0.924993659901493404
0.925883301857138741
0.927074332450022576
0.928812659508369332
0.931313733292773893
0.934893483042870121
0.939959168485238195
0.947114502285696824
0.951845059685128669
0.953572754683964185
0.955160404521158912
0.956855908304885094
0.958769586279097474
0.9612041301139993
0.964200174554144751
0.967701036250853797
0.971709526828499204
0.976297504909414249
0.980402887319275607
0.983873605993668798
0.98678672526398814
0.989646616733846129
0.992002429274449704
0.993888433613000277
0.920000000000341656
0.920000000000777529
0.920000000001740648
0.920000000003833529
0.920000000008259544
0.920000000016572783
0.920000000031637177
0.920000000058376788
0.920000000106718341
0.920000000193011203
0.920000000345062352
0.920000000610001534
0.920000001066579753
0.920000001844449411
0.92000000315413355
0.920000005333374116
0.920000008918672507
0.92000001475607962
0.920000024174354447
0.920000039259432523
0.920000063297072623
0.920000101500020318
0.920000162220292239
0.920000258991805264
0.920000413992643651
0.920000663912786676
0.920001069873088273
0.920001734132602333
0.920002828193585365
0.920004639918423073
0.920007652322668679
0.92001267568587497
0.920021076813094973
0.92003519774205722
0.920058960839144957
0.920097294329297322
0.920154618486042186
0.920192066749677018
0.920236202256706104
0.920309360375824337
0.920426806844473866
0.920603410502810693
0.92085279512873397
0.921184383805982776
0.921606568311709395
0.922124565068167312
0.922738387204693589
0.923191604720024372
0.923518117165564645
0.923908844762447501
0.924398276349885473
0.925030455885779257
0.925870101230044096
0.927086852313681153
0.928887248204262606
0.931494789703990578
0.935251251039006748
0.940710587332914794
0.946611189318475654
0.949295260605273583
0.950684579548976338
0.952213796274147928
0.954066551888472891
0.955987240067890265
0.958708900974966638
0.962230367053199642
0.966403903472401127
0.97115933202367799
0.975983302993235657
0.980140550446579217
0.983721232652434496
0.986680910170690595
0.989553417586244266
0.991957957096525345
0.993901743730621345
0.920000000000338325
0.920000000000770424
0.920000000001726326
0.920000000003799889
0.920000000007954455
0.920000000015617325
0.920000000029546183
0.920000000054864042
0.920000000100392845
0.920000000181149913
0.92000000032272955
0.920000000568247378
0.920000000989546818
0.920000001705129522
0.920000002908703207
0.920000004914563574
0.92000000822985295
0.92000001367015094
0.920000022545682694
0.92000003696398247
0.920000060326752522
0.920000098153704871
0.920000159461317746
0.920000259090473893
0.920000421651589684
0.920000688243637121
0.920001127930335172
0.920001857361833375
0.920003074324917902
0.920005115206279367
0.920008551998010127
0.920014350494719246
0.92002412948216894
0.920040748173153289
0.920070326364447522
0.920094702112431828
0.920118606540699213
0.920148185144396447
0.92019749141854168
0.920276266776505758
0.920399130180026614
0.920584954969215774
0.920849832467800167
0.921205374155625645
0.921653123166633614
0.922184268590993672
0.922783930173848743
0.923469509413431311
0.92382307742668146
0.924202943648267383
0.924650562981421897
0.925240850493929678
0.926065191120411302
0.927348419338785313
0.929267896101562241
0.932070089729629236
0.936063101932269603
0.941689699765847932
0.94545875708331284
0.946887999729794205
0.94825757474990291
0.949590185254633901
0.951198441486891144
0.953561181153194437
0.956906477210494821
0.961209596069755201
0.96636078834445327
0.971768931891521803
0.976549602520768278
0.980677184874422792
0.984321949696031484
0.987276551526915069
0.990043930878270695
0.992374444477944873
0.994267073067004903
0.920000000000347651
0.92000000000079396
0.920000000001784612
0.920000000003926122
0.920000000007944685
0.920000000015262831
0.920000000028828868
0.920000000053506128
0.920000000097687121
0.920000000175746235
0.920000000312064303
0.920000000547638308
0.920000000950862762
0.920000001635040587
0.920000002786765636
0.920000004711948649
0.920000007910644402
0.920000013199231192
0.920000021910973298
0.920000036227101581
0.920000059726292285
0.920000098301169356
0.920000161691485352
0.920000266051709592
0.92000043826445066
0.920000723201643389
0.920001195960680196
0.920001982485284642
0.920003294161666041
0.920005486221265878
0.920009157404686029
0.920015343136756925
0.920025989470367844
0.920045327133132473
0.920063150177976574
0.92007995465310588
0.920099801474470014
0.920132378947964735
0.920184603554899172
0.920266612782479676
0.92039243019826622
0.92058295829994452
0.920855963984523851
0.921218539365742717
0.921672096198029367
0.922210891851430237
0.922824698884421313
0.92349551369857108
0.924139226128511848
0.924505611189203713
0.924947118603258844
0.925506206157573064
0.926332652749906726
0.927674982133703807
0.929739235298130962
0.932821439646671968
0.937430320987112764
0.941531727522454398
0.94306274904361731
0.94436880705229731
0.945726544308059913
0.947176845290110703
0.949085079305854618
0.951909349104794633
0.956121437993318279
0.961647878061807071
0.967706786345533976
0.973076831083331095
0.977768109373753247
0.981794294906554899
0.985307623621882733
0.988145771967241293
0.990671683837960781
0.99286387705810597
0.994674416598820721
0.920000000000448459
0.920000000001052198
0.920000000002421325
0.920000000005285035
0.920000000010586794
0.920000000020731901
0.920000000039685073
0.920000000074417512
0.920000000137009333
0.920000000248123229
0.920000000442669275
0.920000000778935179
0.920000001353168617
0.920000002322729493
0.920000003942696765
0.920000006623579614
0.920000011022258479
0.920000018186443391
0.920000029784792783
0.920000048473888721
0.92000007848662213
0.920000126597067536
0.920000203656004434
0.920000326991596284
0.920000524326227254
0.920000841213462817
0.920001352775997261
0.920002182499507382
0.920003530021319849
0.920005724228369681
0.920009303062740424
0.920015169608863981
0.920024800963688216
0.920040379877767989
0.920064557937550154
0.920080433540302778
0.920097849384703625
0.92012518321664416
0.92016968364990126
0.920238969172754828
0.92034440370327486
0.920502165682531293
0.920733952324097826
0.921065610970799642
0.921502392038443863
0.922034508503962402
0.922645835081536303
0.923328732872516711
0.924094051036913111
0.924930533650491937
0.925352822102201045
0.925861345583792406
0.926692075096086088
0.928077588649198426
0.930260546552350798
0.933595733390729321
0.938165815278449444
0.940156959704003925
0.94148527931149828
0.942768382548553996
0.944124692522325337
0.945777048218918726
0.948299450301712366
0.95197142309622107
0.957170612194764514
0.963208849766608588
0.968773873149643139
0.973755581437929396
0.978144131254297444
0.981995302823874816
0.985303384915773961
0.988150730660031118
0.99051423658709814
0.992720344223027462
0.994615782663872405
0.920000000001694573
0.92000000000421045
0.920000000010203767
0.920000000023407538
0.920000000049892575
0.920000000101783177
0.920000000201029455
0.920000000386639982
0.920000000726751144
0.920000001338231788
0.920000002417772023
0.92000000428990647
0.920000007479560344
0.920000012821056146
0.92000002161964145
0.920000035884138256
0.920000058652319819
0.920000094476536079
0.920000150117072035
0.92000023538370046
0.920000363474055338
0.920000553893075113
0.920000835252568594
0.920001247001005384
0.920001840032863782
0.920002712331565387
0.920004071902112086
0.920006411251299894
0.920009213808419601
0.920014462448495052
0.92002052607526108
0.920027793517521286
0.920035650108493197
0.920044444962914709
0.92005578620553119
0.920070350795431646
0.920089868192546789
0.920118715738543869
0.920157250562925411
0.920212991427485805
0.920294307575742709
0.920411042942745783
0.920576506553210105
0.920808404178925954
0.921130157665226879
0.921554555008529785
0.922023713178082294
0.922556796145740154
0.92324856490932794
0.924173957595927575
0.925435875152704646
0.926863123002570677
0.928200366301222046
0.929376505987574486
0.931602273298472117
0.93380413111268401