/*--------------------------------*- C++ -*----------------------------------*\
  =========                 |
  \\      /  F ield         | OpenFOAM: The Open Source CFD Toolbox
   \\    /   O peration     | Website:  https://openfoam.org
    \\  /    A nd           | Version:  8
     \\/     M anipulation  |
\*---------------------------------------------------------------------------*/
FoamFile
{
    version     2.0;
    format      ascii;
    class       volScalarField;
    location    "0.2";
    object      p;
}
// * * * * * * * * * * * * * * * * * * * * * * * * * * * * * * * * * * * * * //

dimensions      [1 -1 -2 0 0 0 0];

internalField   nonuniform List<scalar> 
1800
(
101325.239686383939
101325.205964275898
101325.188539864976
101325.185897779389
101325.183307897241
101325.177071659185
101325.170034685187
101325.164231996343
101325.1593992056
101325.154619085282
101325.149591832043
101325.144530361315
101325.139634397565
101325.134892893897
101325.130213520912
101325.210262834138
101325.19898188168
101325.188081577362
101325.183721565307
101325.180681876125
101325.175491799077
101325.169245355457
101325.163701054975
101325.158972425023
101325.154333373168
101325.149457439475
101325.144515834996
101325.139717486745
101325.135079998232
101325.1305273732
101325.2091694923
101325.200662282441
101325.189936027746
101325.183777696497
101325.18032107591
101325.175782725288
101325.169948050869
101325.164354215245
101325.159500599504
101325.154861272982
101325.150048493248
101325.145151513469
101325.140371676185
101325.135755044917
101325.131261495742
101325.196916307323
101325.192347974691
101325.185823304651
101325.181161433589
101325.177931786558
101325.173918994653
101325.16876620728
101325.163573639555
101325.158898491456
101325.154426676265
101325.149808723232
101325.145078674148
101325.140421929726
101325.135913305567
101325.131536113113
101325.195708994739
101325.192859111849
101325.187286507804
101325.181986188196
101325.177951884893
101325.173907582444
101325.169106021422
101325.164068192273
101325.159331572242
101325.154809084095
101325.150226155281
101325.145553182505
101325.140928652152
101325.136437081426
101325.132078809635
101325.189891497692
101325.187521529602
101325.183320949771
101325.179254428178
101325.175874120701
101325.172319113364
101325.168029611508
101325.163360756822
101325.15880872705
101325.154416112098
101325.149985265409
101325.145458292332
101325.140936786804
101325.136512198937
101325.132200447537
101325.189076844181
101325.187703994336
101325.184392100477
101325.18030206862
101325.17641712389
101325.172573403615
101325.168322767859
101325.163738484232
101325.159167103848
101325.154718388221
101325.150274668777
101325.14577025942
101325.141263172743
101325.136836161968
101325.132518906787
101325.186304438947
101325.184771103493
101325.181668387886
101325.178097820681
101325.174726707599
101325.171296198649
101325.16741954723
101325.163126480329
101325.158729763512
101325.154388945026
101325.150046536612
101325.145650778286
101325.141223757222
101325.13684237501
101325.132556073353
101325.186155109681
101325.185176230239
101325.182677823323
101325.179237171105
101325.175579490591
101325.171862584029
101325.167842419047
101325.16350002517
101325.159043437307
101325.154633009821
101325.150255272471
101325.145834132811
101325.141395525745
101325.137004521326
101325.132694299493
101325.185136339642
101325.183922649943
101325.18121199141
101325.177818948418
101325.174419654461
101325.171000577466
101325.167220367453
101325.163051743933
101325.158715200072
101325.154390727723
101325.150079840212
101325.145724917063
101325.14133215831
101325.136963609053
101325.132674599503
101325.185164488459
101325.183937383685
101325.181228335437
101325.177830123474
101325.174440568444
101325.171014753083
101325.167247997175
101325.1630733208
101325.158735074321
101325.154420127103
101325.150115094351
101325.145752956509
101325.141354062682
101325.136993476117
101325.132705131546
101325.186165206382
101325.185185197828
101325.182689794048
101325.179243138424
101325.175595544031
101325.171869169353
101325.16786106072
101325.163518004905
101325.159061958388
101325.154654788668
101325.150270518847
101325.145854783579
101325.141413753881
101325.137017227476
101325.132714007093
101325.186304468094
101325.184768488383
101325.181665489043
101325.17810194513
101325.174724523851
101325.171301765571
101325.167414899799
101325.163119123419
101325.158722758672
101325.154386182767
101325.150055890947
101325.145650142556
101325.141222169914
101325.136849961491
101325.13255533851
101325.189076164606
101325.18770246864
101325.184390584225
101325.18030287727
101325.176416618968
101325.172574514596
101325.168319955032
101325.16373382631
101325.159162798329
101325.154716817851
101325.150277664085
101325.145770676856
101325.141263249287
101325.136838853534
101325.132518826707
101325.189890562557
101325.187520379608
101325.18331989467
101325.179254179733
101325.175873633518
101325.172318775411
101325.168027576408
101325.163357693353
101325.158805939529
101325.154414901568
101325.149986060933
101325.145458668921
101325.140937139135
101325.136513284553
101325.132200542939
101325.19570803229
101325.19285809646
101325.187285554231
101325.181985518691
101325.177951172416
101325.173906735276
101325.169104378088
101325.164066019657
101325.159329601272
101325.154808014573
101325.150226115991
101325.145553302093
101325.140928886438
101325.136437556212
101325.132078943105
101325.196915323686
101325.192346992786
101325.18582236323
101325.181160587017
101325.177930907739
101325.173917966778
101325.168764784641
101325.163571960453
101325.158896964043
101325.154425686967
101325.149808341201
101325.145078569985
101325.140421997407
101325.135913517079
101325.131536265282
101325.209168511938
101325.200661304872
101325.189935065573
101325.183776758277
101325.18032010179
101325.175781637736
101325.169946758935
101325.164352807144
101325.1594993123
101325.154860332288
101325.150047955511
101325.14515125069
101325.140371604721
101325.135755119336
101325.131261651622
101325.210261848857
101325.198980901521
101325.188080601059
101325.1837205841
101325.180680854523
101325.17549069332
101325.169244136181
101325.16369978874
101325.158971262848
101325.154332460879
101325.149456828003
101325.144515475011
101325.139717324244
101325.135079998727
101325.130527525718
101325.239685395951
101325.205963290791
101325.188538879709
101325.18589678494
101325.183306862746
101325.177070554069
101325.170033501621
101325.164230793089
101325.159398099189
101325.15461818823
101325.149591192894
101325.144529958983
101325.139634194755
101325.134892868926
101325.130213682118
101325.126552384827
101325.123689807282
101325.120424633118
101325.116782311525
101325.11324127148
101325.109982273338
101325.106881262283
101325.103815272596
101325.100781158937
101325.097824843397
101325.094963748212
101325.092183093657
101325.089466142381
101325.086807727886
101325.084208094631
101325.081665364312
101325.079174899569
101325.076732114205
101325.074333900513
101325.071978019958
101325.069662215843
101325.067384118563
101325.065141563842
101325.062932297616
101325.060752509846
101325.058594722854
101325.056453813973
101325.054366944125
101325.052619071037
101325.05191149225
101325.051926202781
101325.051757753943
101325.050394109843
101325.047790201133
101325.045751988975
101325.044095934718
101325.042225528014
101325.040208284277
101325.039894905596
101325.040368138667
101325.040657723512
101325.041074980778
101325.040091257004
101325.037214217082
101325.034137167837
101325.031831622327
101325.0313264328
101325.031615854576
101325.031212396076
101325.030304914821
101325.029278172704
101325.028391391548
101325.027910688921
101325.028200992063
101325.027366773909
101325.024888936634
101325.022716205829
101325.021108556626
101325.019666998676
101325.018354047192
101325.017102166239
101325.015865160662
101325.01461102828
101325.013314232769
101325.011958834119
101325.010520471566
101325.009001902334
101325.007375642352
101325.005322934594
101325.004310113014
101325.005407074364
101325.005969419493
101325.004866125862
101325.002133117814
101324.999216010314
101325.126831150701
101325.123872064825
101325.120637374945
101325.117071533983
101325.113571178648
101325.110319486514
101325.107224222462
101325.104169312996
101325.101142555766
101325.098185403869
101325.095318604683
101325.092531090428
101325.089806336357
101325.087138375835
101325.084528127496
101325.081975477413
101325.079477483625
101325.077030880508
101325.074633893528
101325.072286020644
101325.069987429015
101325.067739491671
101325.065546441183
101325.063416575751
101325.061359533778
101325.059374438453
101325.05744275183
101325.055609674804
101325.054191822535
101325.052126533978
101325.050134604651
101325.048867776219
101325.048388551601
101325.048580271308
101325.047328427987
101325.046000641712
101325.045476228814
101325.04519562122
101325.042386467307
101325.040518603637
101325.040232760701
101325.038947170571
101325.037543851737
101325.037169911666
101325.036728679654
101325.036164464647
101325.033897027562
101325.032045456435
101325.03133420099
101325.030459436224
101325.029396954415
101325.028551544834
101325.027644424583
101325.026201157583
101325.024803144493
101325.024475024664
101325.023377783451
101325.021427447049
101325.019881325061
101325.018632562278
101325.017361730934
101325.016157716484
101325.014939820932
101325.013733579763
101325.012559093622
101325.011403836033
101325.010432900817
101325.009760390982
101325.009230078198
101325.007379003466
101325.00452098962
101325.003107867669
101325.002524400305
101325.00171372667
101325.000079641803
101325.12739893276
101325.12420808259
101325.120998854371
101325.117542864158
101325.11407599083
101325.110794308741
101325.107669792182
101325.104603433458
101325.101566910278
101325.098591738017
101325.095702703446
101325.092894511035
101325.090151466618
101325.087466183526
101325.084839126139
101325.082270427054
101325.079756565188
101325.077292428818
101325.074873605627
101325.072496440844
101325.070156961301
101325.067850054969
101325.065568707578
101325.063302216979
101325.061032589394
101325.058727107913
101325.05632395143
101325.053729654639
101325.051016383339
101325.050360921115
101325.051626208413
101325.052818048294
101325.05173540859
101325.048225519204
101325.045162172537
101325.043267391127
101325.041860736776
101325.040406472835
101325.040033697776
101325.04003804682
101325.039787350994
101325.03955085919
101325.039607672399
101325.03778189329
101325.034500185211
101325.031834118898
101325.031461798499
101325.031778955119
101325.031298635309
101325.030241329485
101325.029154711578
101325.028098613591
101325.027198579337
101325.026694134387
101325.027078626925
101325.025668710514
101325.022719793269
101325.020935728055
101325.019778844013
101325.018457791361
101325.017161512995
101325.015991384484
101325.014562118158
101325.013148231694
101325.011693166729
101325.009997255678
101325.007985717384
101325.00582864006
101325.004189439773
101325.004202399054
101325.003880176344
101325.004747458079
101325.005370856205
101325.003304924976
101324.999819043209
101325.12756971248
101325.124280606018
101325.121186313059
101325.117891366812
101325.114488674837
101325.11120197612
101325.108077535304
101325.105034287757
101325.102021676081
101325.099056651932
101325.09616797301
101325.093358152953
101325.090613159991
101325.087923580213
101325.085289224662
101325.08271185089
101325.080190210283
101325.077721290771
101325.075303196907
101325.072936045515
101325.070621382925
101325.068362038161
101325.06616309956
101325.064033381292
101325.061986572982
101325.060042924582
101325.05823636688
101325.056621850221
101325.055196347006
101325.053541720321
101325.051645530009
101325.049622967388
101325.048266293277
101325.047630343281
101325.046819026014
101325.04572554231
101325.043957466216
101325.042018041291
101325.040932080243
101325.040324359623
101325.040111749258
101325.039572832597
101325.037837155949
101325.035993946731
101325.034390019617
101325.032838591127
101325.032085495317
101325.03168402685
101325.030998706919
101325.030081035016
101325.029115129611
101325.02813399538
101325.027454560433
101325.02696117216
101325.025620565924
101325.023936609243
101325.022726351104
101325.02151113018
101325.02019002859
101325.019011498793
101325.017622560394
101325.016498148922
101325.014920999456
101325.013658270997
101325.012596433531
101325.011515219259
101325.010336791383
101325.00891366291
101325.007098996401
101325.005386118821
101325.00534595146
101325.00441348413
101325.002300277833
101325.000735824273
101324.999652518934
101325.128050669897
101325.124672829887
101325.12159153189
101325.118348283344
101325.114950406016
101325.111631329462
101325.108484571858
101325.10543975413
101325.10242660415
101325.099449416026
101325.096541551407
101325.093713744805
101325.090953942505
101325.08825066706
101325.085602746753
101325.083012956093
101325.080481043769
101325.078003602917
101325.075577159674
101325.073199445134
101325.070868301831
101325.068580110979
101325.066328564717
101325.064103125478
101325.061887212563
101325.059659319639
101325.057405884625
101325.055168445018
101325.053171293854
101325.051980356773
101325.051618635247
101325.051354191921
101325.050392414036
101325.048302365059
101325.046125108245
101325.044111614683
101325.042601058056
101325.041488557865
101325.041034294365
101325.040847903685
101325.040161362398
101325.039196928105
101325.038231761078
101325.036799092093
101325.034813313905
101325.033395376493
101325.032670349654
101325.031885799821
101325.030967894971
101325.030074158843
101325.029234317102
101325.028563919404
101325.027765520965
101325.026793635436
101325.025884913848
101325.024641214695
101325.022930887397
101325.021265253963
101325.019956402713
101325.019036893456
101325.016990400982
101325.016139345127
101325.01440931746
101325.012973231933
101325.011643078193
101325.010113899974
101325.008522620017
101325.007169862758
101325.006353086326
101325.004952347095
101325.004621659056
101325.004151859452
101325.00360446058
101325.002309650779
101325.000186101315
101325.128146501869
101325.124754900535
101325.121712835462
101325.118536407666
101325.115186023366
101325.111886474711
101325.108752981207
101325.105727226546
101325.102732220068
101325.099764721628
101325.0968601778
101325.094034743262
101325.091277856423
101325.088576329712
101325.085928005501
101325.083336507072
101325.080802876037
101325.078324654402
101325.075899492629
101325.073527371482
101325.071210300681
101325.06895183814
101325.066758074099
101325.064639571327
101325.06261304731
101325.060702229472
101325.058935199442
101325.057325020025
101325.05581225302
101325.054198328988
101325.05240344083
101325.050682700094
101325.04897273505
101325.047702622032
101325.046602896589
101325.045645804217
101325.044455206153
101325.043022366241
101325.041810094364
101325.040870681463
101325.039926634025
101325.038822591378
101325.037418512045
101325.035962014794
101325.03469029619
101325.033573372071
101325.032743430231
101325.03201894548
101325.031112523531
101325.030090265645
101325.029103511828
101325.028102379321
101325.027110739276
101325.026087819133
101325.024877047996
101325.023583018556
101325.022392901359
101325.021224045122
101325.020038030198
101325.018979040484
101325.017716668095
101325.016551036722
101325.014851275162
101325.013606802735
101325.012564568649
101325.011390492931
101325.010179116463
101325.008846355966
101325.007444178889
101325.006124325548
101325.005171889963
101325.004026233306
101325.002551115365
101325.000918221544
101324.999548096486
101325.128459236643
101325.125045590306
101325.121997724797
101325.11883519408
101325.115492709388
101325.112182966026
101325.109033363289
101325.105997820836
101325.102997425565
101325.100022330138
101325.097106808142
101325.094269989771
101325.091503083735
101325.088792339637
101325.086134917379
101325.083534925579
101325.08099436968
101325.0785112257
101325.076082894826
101325.073708586904
101325.071388620898
101325.069122630375
101325.066908153603
101325.064738213972
101325.062596847929
101325.060460376844
101325.058320536424
101325.056230865986
101325.054366083321
101325.052926948701
101325.051886622517
101325.050855822119
101325.049755078755
101325.048299945702
101325.04663580154
101325.044891905171
101325.043381732117
101325.0422836215
101325.04151734167
101325.040804111675
101325.039950767969
101325.038963775238
101325.037712121659
101325.036482783893
101325.035208049754
101325.03400086156
101325.032983685829
101325.032067117485
101325.031107322546
101325.030111221466
101325.029156945428
101325.028250801319
101325.02732488203
101325.026336959243
101325.025286398683
101325.02409786958
101325.022771602307
101325.021420769786
101325.020121250345
101325.018692172933
101325.017818434426
101325.015967391621
101325.014408020434
101325.013101503166
101325.011815504637
101325.010286875593
101325.008824353747
101325.007442122878
101325.006262832467
101325.005434528386
101325.004663582062
101325.003757814105
101325.002844832561
101325.001721015506
101325.00019560213
101325.128495994373
101325.125088599962
101325.122058177862
101325.118922130743
101325.115603321814
101325.112307149961
101325.109166229275
101325.106141635217
101325.103154347002
101325.100189397883
101325.097279326539
101325.094445649811
101325.091681760488
101325.08897387347
101325.086318366026
101325.083719372211
101325.081179559682
101325.078697433812
101325.07627075637
101325.073899516297
101325.071585875849
101325.069333590407
101325.067150347357
101325.065051563812
101325.063055104169
101325.061165918582
101325.059371874318
101325.057645472581
101325.056028446837
101325.054403517002
101325.052702863875
101325.051048568872
101325.049461871167
101325.047986336227
101325.046710701004
101325.045656858318
101325.044626809118
101325.043425724376
101325.042155324685
101325.040883579612
101325.039705933174
101325.038413996328
101325.037103264636
101325.035866067075
101325.034870431133
101325.033827657215
101325.032886096829
101325.031983752895
101325.031071013756
101325.030068925291
101325.02903764967
101325.027992780917
101325.026911619672
101325.025792388551
101325.024616421317
101325.023453298418
101325.022311465844
101325.02110763466
101325.019957592333
101325.018945763484
101325.017979272918
101325.016274353926
101325.014857472794
101325.01370074405
101325.012559045601
101325.011368223728
101325.010213212401
101325.008900081753
101325.007348405197
101325.006198018367
101325.005110743077
101325.003923354787
101325.002723026701
101325.001278609867
101324.999778017271
101325.128630020467
101325.125213706662
101325.1221781856
101325.119043484665
101325.115726100004
101325.112426648149
101325.109278960328
101325.106248267883
101325.103256450573
101325.100286322398
101325.097369378986
101325.094528772097
101325.091759223011
101325.089046706562
101325.086386864481
101325.083783772352
101325.081240580941
101325.078756167146
101325.076328375217
101325.073957137341
101325.071643913994
101325.069389236174
101325.067194699353
101325.065074477228
101325.063020433605
101325.060988343816
101325.058902604433
101325.056705196621
101325.054837487332
101325.053307938317
101325.052029811821
101325.050837462404
101325.049570397561
101325.048226856976
101325.046775814029
101325.045248709081
101325.04382126467
101325.042678101672
101325.041832148912
101325.041156892083
101325.040230984363
101325.039070591694
101325.038569369877
101325.037740194181
101325.036275232385
101325.034988843036
101325.033763383064
101325.032576730606
101325.031337077191
101325.030161021947
101325.029113557612
101325.028092624474
101325.027056071194
101325.026014713381
101325.02490199625
101325.023797769594
101325.022718791719
101325.021581915804
101325.019892424709
101325.018991032426
101325.017807447162
101325.016177645157
101325.014589695784
101325.013316489378
101325.011924270322
101325.010456468983
101325.009215907528
101325.00796497699
101325.006099180508
101325.005158991931
101325.004406859021
101325.003555712159
101325.002646748093
101325.001528797497
101325.000143680722
101325.128616934962
101325.12520340085
101325.122176180928
101325.119049990157
101325.11573749478
101325.112441918682
101325.109298262556
101325.106270873905
101325.103284523764
101325.100320415877
101325.097408436632
101325.094572227361
101325.09180677656
101325.08909792357
101325.086441045583
101325.083840250227
101325.081298948891
101325.078816258188
101325.076390370174
101325.074022359971
101325.071718712046
101325.069489818285
101325.067337734159
101325.065258035829
101325.063298240028
101325.061583732007
101325.060227252572
101325.059208878301
101325.057909938027
101325.056373149171
101325.054703436021
101325.052946301395
101325.051181505318
101325.049490471065
101325.047898191508
101325.046364978276
101325.044853094369
101325.043319055316
101325.041817409219
101325.04045998065
101325.039235810895
101325.038396234871
101325.037277467156
101325.036187358055
101325.035176523859
101325.034148229519
101325.03318337386
101325.032080259407
101325.030947332474
101325.029963006833
101325.028935218215
101325.027864661781
101325.026756397783
101325.025617850944
101325.024455699822
101325.023334797952
101325.022334043111
101325.021832193248
101325.019491542625
101325.019036746409
101325.017578347644
101325.016708649826
101325.0171046389
101325.015904647051
101325.012589226317
101325.011054743809
101325.010355406426
101325.010080065957
101325.010566192068
101325.009218577456
101325.006934494377
101325.004869698212
101325.003013762063
101325.00126378049
101324.999840569406
101325.128642001
101325.125236989537
101325.122208170389
101325.119080440083
101325.115771730168
101325.112475283735
101325.109327642131
101325.106301176958
101325.10331368992
101325.100346943567
101325.097432884781
101325.094594640046
101325.091827401833
101325.08911694173
101325.086458617021
101325.083856502446
101325.081313875766
101325.078829597041
101325.076401264159
101325.074028404488
101325.071710942939
101325.069447533926
101325.067239037395
101325.065075702456
101325.062937754221
101325.060855848205
101325.058970017009
101325.057373269869
101325.055800601331
101325.054171116994
101325.052571403678
101325.051040855542
101325.049571311334
101325.04814602324
101325.046830159612
101325.045684557874
101325.044606669617
101325.04344711412
101325.042292281665
101325.041114129883
101325.040080363746
101325.039018072304
101325.037512583935
101325.036105152074
101325.034959394179
101325.033913277104
101325.032918888523
101325.032016861602
101325.03109540591
101325.030074071168
101325.029037546163
101325.027979511753
101325.026907735592
101325.025807158439
101325.024622461235
101325.023526570207
101325.022579104174
101325.021512517182
101325.020312627574
101325.019182586446
101325.017191511099
101325.015451075189
101325.013590068949
101325.011583390602
101325.010600149093
101325.009573863426
101325.008231315354
101325.007087793565
101325.006175504503
101325.005625524689
101325.004805812001
101325.003946417957
101325.00302347081
101325.001952960607
101325.000679954232
101325.128649229024
101325.125234985419
101325.122199226971
101325.119064162165
101325.115747477539
101325.112447536871
101325.109299110802
101325.106268987089
101325.103277672344
101325.10030743049
101325.097390359195
101325.0945495794
101325.091779897266
101325.089067327019
101325.086407520314
101325.083804434209
101325.081260965875
101325.078775680697
101325.076345988826
101325.073971021193
101325.071650957339
101325.069385677853
101325.067176491473
101325.065028492143
101325.062952200649
101325.060917309442
101325.058853368857
101325.056787266716
101325.054977914871
101325.053474523811
101325.052159257277
101325.050877138769
101325.049563974331
101325.048193417824
101325.046741599857
101325.045178952772
101325.043677507376
101325.042455813484
101325.041504094668
101325.040630701915
101325.039683105832
101325.038565564872
101325.037492133037
101325.036433821311
101325.035347345547
101325.034256723811
101325.033242694815
101325.032111467488
101325.031115697391
101325.030099346302
101325.029084610069
101325.027960931897
101325.026729048055
101325.025406081535
101325.024047806481
101325.022894683396
101325.022293119473
101325.021117826225
101325.020706118827
101325.019803338626
101325.019391509457
101325.01837893411
101325.016216092452
101325.015892422089
101325.017263776142
101325.016431885568
101325.014462052684
101325.011904023486
101325.008118101439
101325.005862824706
101325.004431392575
101325.003085787015
101325.001948701378
101325.000860771674
101324.999547370651
101325.128493161828
101325.125086285392
101325.12205658255
101325.118921062705
101325.115603046113
101325.112307347285
101325.109166453942
101325.106142540273
101325.103156071302
101325.100192215061
101325.097283426119
101325.094451145342
101325.091688781933
101325.088982578076
101325.086328873658
101325.083731576669
101325.081192956277
101325.07871110749
101325.076283480143
101325.073909818457
101325.071592072287
101325.069334150947
101325.067144508212
101325.065039888097
101325.06303817562
101325.061143905215
101325.05933934098
101325.057606378628
101325.055938590784
101325.0542680824
101325.052581206561
101325.050963249581
101325.049357950527
101325.047943065947
101325.046712014562
101325.045694418208
101325.044654767989
101325.043451799618
101325.042165670136
101325.040942038017
101325.039785321569
101325.038595042613
101325.037330901701
101325.036051704432
101325.034875508834
101325.033840734526
101325.032908241308
101325.03200339539
101325.031089216529
101325.030019333062
101325.028924052298
101325.027881663918
101325.026749495126
101325.025635863858
101325.024671602281
101325.023460379773
101325.022039540054
101325.022572208676
101325.0207970763
101325.018975291576
101325.017522278693
101325.016108533164
101325.014777366247
101325.013720546238
101325.011721677409
101325.010279628477
101325.009273196047
101325.008240556155
101325.007456890948
101325.00641257946
101325.005304543709
101325.004089058435
101325.002803215844
101325.001400812369
101324.999748349583
101325.128457863131
101325.125044151486
101325.121996666276
101325.118834630106
101325.115492759433
101325.112183584191
101325.1090345337
101325.105999895037
101325.103000677875
101325.100027091263
101325.09711336116
101325.094278580713
101325.091513997235
101325.088805923981
101325.086151470983
101325.083554416226
101325.081016199605
101325.078534235116
101325.076105569984
101325.073729239622
101325.071405355106
101325.069133173762
101325.066909652785
101325.064727867924
101325.062575758973
101325.060440779154
101325.05833132354
101325.056317445938
101325.054554630653
101325.053186382007
101325.052086777287
101325.050997074562
101325.049756426466
101325.048164596796
101325.046487173895
101325.044754568487
101325.043221138476
101325.042052410237
101325.041224328612
101325.040533741892
101325.039692229213
101325.03870297088
101325.037654012893
101325.036535832231
101325.035273244692
101325.034025839253
101325.033000818599
101325.032048304434
101325.031120205473
101325.03017714477
101325.029134955505
101325.02808467923
101325.026873698545
101325.025511916989
101325.02406242014
101325.022477863458
101325.018764098408
101325.023448519991
101325.021167655694
101325.019676850789
101325.018305249163
101325.016970589102
101325.015593825912
101325.01392983181
101325.011976362264
101325.01055482107
101325.00925404836
101325.007921195618
101325.006624828879
101325.005238408703
101325.003856308525
101325.002595182203
101325.001510003698
101325.000575955186
101324.999587842118
101325.12814596339
101325.124754284072
101325.12171248364
101325.118536516369
101325.115186733092
101325.111887877414
101325.108755222842
101325.105730613795
101325.102737092588
101325.099771449837
101325.096869101355
101325.094046180442
101325.091292220022
101325.088594216009
101325.085949996268
101325.083362681733
101325.080832516192
101325.078356475773
101325.075932289852
101325.073560464836
101325.071243185695
101325.068983882971
101325.066789371413
101325.064671277636
101325.062645717539
101325.060726343378
101325.058927022619
101325.05724806065
101325.055625259789
101325.053920047809
101325.052204439402
101325.050395081096
101325.048836026297
101325.047667615509
101325.046616088337
101325.045689546576
101325.044532989297
101325.043076537957
101325.041698996109
101325.040623380628
101325.039687805445
101325.038685563879
101325.037434903919
101325.035994313759
101325.03465437777
101325.033497670971
101325.03270811119
101325.032016075318
101325.031185383748
101325.030171541279
101325.029078764157
101325.028087969884
101325.026981932198
101325.025471671615
101325.023867060227
101325.022309228676
101325.021031488504
101325.021840297573
101325.020944758347
101325.019584821406
101325.018105060008
101325.01672107105
101325.015368844106
101325.013844512563
101325.012412728436
101325.011071325265
101325.009788556432
101325.008552255909
101325.007381903415
101325.006215171205
101325.004976456767
101325.003604609141
101325.002252803402
101325.001104049283
101324.999853097979
101325.128050567509
101325.124672755148
101325.121591723306
101325.118348945878
101325.114951715004
101325.111633458859
101325.108487760081
101325.105444352172
101325.102433039618
101325.099458165481
101325.096553055657
101325.093728381602
101325.090972240752
101325.088273635134
101325.085631615366
101325.083048226908
101325.080521736571
101325.078047310191
101325.075621252035
101325.073242593426
101325.070910239199
101325.068618810648
101325.066358882075
101325.064116461916
101325.061886513882
101325.059659347608
101325.057438580712
101325.055295836457
101325.053472710075
101325.052458541788
101325.051972858841
101325.051524901326
101325.05003333588
101325.047874048963
101325.04579805526
101325.043984923643
101325.042494727459
101325.041315587994
101325.040650821495
101325.040413254188
101325.039933201551
101325.039069515144
101325.037994832688
101325.036788059602
101325.034965543309
101325.033476480938
101325.032579381354
101325.031892542946