/*--------------------------------*- C++ -*----------------------------------*\
  =========                 |
  \\      /  F ield         | OpenFOAM: The Open Source CFD Toolbox
   \\    /   O peration     | Website:  https://openfoam.org
    \\  /    A nd           | Version:  8
     \\/     M anipulation  |
\*---------------------------------------------------------------------------*/
FoamFile
{
    version     2.0;
    format      ascii;
    class       surfaceScalarField;
    location    "0.2";
    object      phi;
}
// * * * * * * * * * * * * * * * * * * * * * * * * * * * * * * * * * * * * * //

dimensions      [1 0 -1 0 0 0 0];

internalField   nonuniform List<scalar> 
3490
(
2.06166364049522223e-07
7.12719116793658071e-09
1.98539837466636295e-07
7.62651765510534087e-09
1.91647858317638901e-07
6.89197020684532095e-09
1.84548552584430906e-07
7.09929676799831511e-09
1.77265710197547883e-07
7.28283338814810615e-09
1.70113220748986832e-07
7.15248040694135499e-09
1.63235626595282116e-07
6.87758506068483559e-09
1.56623995062626144e-07
6.61162238522599788e-09
1.50263346640297733e-07
6.36063922156318143e-09
1.44168133691093947e-07
6.09520369208730663e-09
1.38354424226450419e-07
5.8137001444544194e-09
1.3282882847100825e-07
5.52558635421665225e-09
1.27593230317834962e-07
5.23558859853155349e-09
1.22651504560344991e-07
4.94171569707486524e-09
4.63846335076578847e-09
1.18013029124512902e-07
2.14982869487812853e-07
5.43781496089502021e-09
2.15686935144983923e-07
6.92244307160285203e-09
2.1565990596673203e-07
6.91899044441191442e-09
2.15413361914856818e-07
7.34583185645281882e-09
2.14777386523491205e-07
7.91879978345730295e-09
2.13776950735174464e-07
8.15290715303412459e-09
2.12523258768713964e-07
8.13126793234815304e-09
2.11077253623611698e-07
8.05761838032471094e-09
2.09461274551927317e-07
7.97660909072957217e-09
2.07704244946529173e-07
7.85222404113169e-09
2.05844643427907946e-07
7.67329234560605464e-09
2.03914117351502827e-07
7.45610304252537892e-09
2.01935984355951737e-07
7.21371211950123887e-09
1.99932881994402161e-07
6.94480844810497931e-09
6.63506947156827058e-09
1.97936265940044644e-07
2.1517370938370997e-07
3.55759655292837812e-09
2.16850510781617794e-07
5.24563274491125669e-09
2.18022694390315344e-07
5.74679789514615069e-09
2.1911131556151041e-07
6.2572017262941129e-09
2.20123269355671611e-07
6.90683699650666695e-09
2.20941979099235916e-07
7.33418836781339588e-09
2.21593549983372744e-07
7.47968794700569926e-09
2.221321455077347e-07
7.51901369885167687e-09
2.22565158203318955e-07
7.54358718884351103e-09
2.22884562916561673e-07
7.5328100730974091e-09
2.23096304247355001e-07
7.46154170289231517e-09
2.23213380886564217e-07
7.33901702207612626e-09
2.23244964807853584e-07
7.1821187394981555e-09
2.23195375623325423e-07
6.99438808249124591e-09
6.76929208577631229e-09
2.23061143334417664e-07
2.14362923859577039e-07
2.48813787536428269e-09
2.15509734815815803e-07
4.0988128579377996e-09
2.16539890810026319e-07
4.71663296096369977e-09
2.17630018718190934e-07
5.16706486640932283e-09
2.18822339992275551e-07
5.71450673842435608e-09
2.20018499477607616e-07
6.1380198431528452e-09
2.21164845741803611e-07
6.33333257028773329e-09
2.22272626522091191e-07
6.41122374541476133e-09
2.23347207128405329e-07
6.46899736937152261e-09
2.24376178912880925e-07
6.50382903883672115e-09
2.25350379735252697e-07
6.48733157990643324e-09
2.26268795708766595e-07
6.42059167466581011e-09
2.27130326757600735e-07
6.32057824128908129e-09
2.27929249091929656e-07
6.19545621708708403e-09
6.0446580858059338e-09
2.28653873458195743e-07
2.13986167728028092e-07
1.79543278096758217e-09
2.15050762348179929e-07
3.03420929960084833e-09
2.16083480072545921e-07
3.6839062934488404e-09
2.17125689906585523e-07
4.12484609599123654e-09
2.18255297825002265e-07
4.58488985499451305e-09
2.19417613314275308e-07
4.97569532298848313e-09
2.20556516330962612e-07
5.19442041850360271e-09
2.21677649625529602e-07
5.2900812460801962e-09
2.22796502061494698e-07
5.35013570945389454e-09
2.23908124306900229e-07
5.3921975546785961e-09
2.25000497674303705e-07
5.39494893084071438e-09
2.26067574395296591e-07
5.35350558549987613e-09
2.27106262498213364e-07
5.28188070052280604e-09
2.28110262439169027e-07
5.19144676691072172e-09
5.08700850232871911e-09
2.29067902403460625e-07
2.13846572165032066e-07
1.24231100135665968e-09
2.14604178296363081e-07
2.2765942187481255e-09
2.15421557346652935e-07
2.86651828634599145e-09
2.16306947677227166e-07
3.23944685619936532e-09
2.17295676392971121e-07
3.59615220862176113e-09
2.1836380647833186e-07
3.90755623175935739e-09
2.19463154573360957e-07
4.09506314168664117e-09
2.20572376673144639e-07
4.18084987838778277e-09
2.21691617499008614e-07
4.23088564239440174e-09
2.2281581480130295e-07
4.26799103732332744e-09
2.23933360948969848e-07
4.27739354072215174e-09
2.25035732382943157e-07
4.25112478106968339e-09
2.26118480398335092e-07
4.19912325721086642e-09
2.27176856708863348e-07
4.13306098685798532e-09
4.05838671700003052e-09
2.28205468894379629e-07
2.13637715856827291e-07
8.98043811674589666e-10
2.14308899373514022e-07
1.60540172695220931e-09
2.15119281862443463e-07
2.05612679579215645e-09
2.16004774348432226e-07
2.35394552690381237e-09
2.16977890815715648e-07
2.62302687247673892e-09
2.18022156199207513e-07
2.86328192284850804e-09
2.1909287251732307e-07
3.02433754298766566e-09
2.20167456175518913e-07
3.10625682140382257e-09
2.21247178738991307e-07
3.15115382195901958e-09
2.22332576743949653e-07
3.18258386951448929e-09
2.23415866930381609e-07
3.19409421115181966e-09
2.24488479327806762e-07
3.17850296412557043e-09
2.25545412453360103e-07
3.14218070896688498e-09
2.2658321039469163e-07
3.09525366410590681e-09
3.04360883721826749e-09
2.2759797870488594e-07
2.13652403917975337e-07
5.39082743922066295e-10
2.14225584556083723e-07
1.03221207752836247e-09
2.14923739049623775e-07
1.35796314712922533e-09
2.15709505466590185e-07
1.56817042818406685e-09
2.16586703089985406e-07
1.7458204493586873e-09
2.17546661145245792e-07
1.90331518504670257e-09
2.18561616277754258e-07
2.00937288510732709e-09
2.19605799186477294e-07
2.06206423492242055e-09
2.20667586701170494e-07
2.0893570559201211e-09
2.21741389354707311e-07
2.10877214603172448e-09
2.22818624991692507e-07
2.11684968701107907e-09
2.23889690034837501e-07
2.10742829899261427e-09
2.24947847218727264e-07
2.08401407801449821e-09
2.25989306176881309e-07
2.05378554374241633e-09
2.02042360950663153e-09
2.27012481874130159e-07
2.13540385056159435e-07
2.92140279623437444e-10
2.14053153250650592e-07
5.19434848768855633e-10
2.14745753275894261e-07
6.65354232794265437e-10
2.15553336340018321e-07
7.60578104573987002e-10
2.16452777500413484e-07
8.46370447654484584e-10
2.17430105721584952e-07
9.25977697884676489e-10
2.18455442795451336e-07
9.84027016237382789e-10
2.19500240851169298e-07
1.01725730593523537e-09
2.20553238229759268e-07
1.03635059283820556e-09
2.21612499388725995e-07
1.04950203387323588e-09
2.22673353006347964e-07
1.05598665186175769e-09
2.23727736647098918e-07
1.05303553639067215e-09
2.24769206140725047e-07
1.04253506439941273e-09
2.25794662024194553e-07
1.02831997006606143e-09
1.01264352129261001e-09
2.26802432555641094e-07
2.13587264143469511e-07
-1.68331420742690457e-12
2.14107215277940056e-07
-5.25485799280059047e-13
2.14772859201756503e-07
-2.98690946436099203e-13
2.15533602243791397e-07
-1.74303797985445135e-13
2.1637990137976261e-07
6.27487002676808434e-14
2.17306021460710985e-07
-1.51516300941211382e-13
2.18290454986188506e-07
-4.15519754799192345e-13
2.1930781742290017e-07
-1.14448673680153487e-13
2.20343972403140337e-07
1.86461873464642183e-13
2.21393467781657809e-07
-1.95430031735045225e-15
2.22449948551568698e-07
-5.03230858160212224e-13
2.23503027522104046e-07
-5.28223746655679389e-14
2.24545312457408297e-07
2.40400896969867154e-13
2.2557392591119585e-07
-3.02824082220074346e-13
-1.30477259253315743e-13
2.26586690537982021e-07
2.13583479885167063e-07
-2.9172288965463576e-10
2.14102537862758388e-07
-5.19592072120979165e-10
2.1476788692370194e-07
-6.65656598057943297e-10
2.1552852888166633e-07
-7.60824915567643328e-10
2.16375292841053587e-07
-8.46710674986963916e-10
2.17301353491337348e-07
-9.26221155547650443e-10
2.18285085977703439e-07
-9.84157103977245631e-10
2.19302393216151463e-07
-1.017430579282969e-09
2.20339238520991902e-07
-1.03666805415837745e-09
2.21388945961270676e-07
-1.04971931342285828e-09
2.22444433748407778e-07
-1.0560005811566003e-09
2.23497548938670512e-07
-1.05317741278268575e-09
2.24540506732064007e-07
-1.04272662909933768e-09
2.25568490281898761e-07
-1.0282962034598381e-09
-1.01260948391874689e-09
2.26580959361194958e-07
2.13540030939299844e-07
-5.38311268164025219e-10
2.14052556003686838e-07
-1.03212591310714806e-09
2.14744878463433182e-07
-1.35798801933896839e-09
2.15552241963456538e-07
-1.56819698136678838e-09
2.1645158033618785e-07
-1.74605814266341782e-09
2.17428833755723124e-07
-1.90348330563032514e-09
2.1845409297130861e-07
-2.00942568373142492e-09
2.19498845215387342e-07
-2.06219221951850753e-09
2.20551770675128896e-07
-2.08960280481041009e-09
2.21611004269169441e-07
-2.10896244628628463e-09
2.22671774640697122e-07
-2.1167801733225516e-09
2.23726103878555865e-07
-2.10751634935321078e-09
2.24767550627084855e-07
-2.08418282799690204e-09
2.25792875605698264e-07
-2.05363060312864053e-09
-2.02025372433406489e-09
2.26800510099844237e-07
2.13652863888186328e-07
-8.97732251170458452e-10
2.1422595903367386e-07
-1.6052298496435687e-09
2.14924090365043098e-07
-2.05612803246254866e-09
2.15709874429239753e-07
-2.35399022468083869e-09
2.1658692541128484e-07
-2.62311826543731877e-09
2.17546784803081698e-07
-2.86335203751096104e-09
2.18561736357708436e-07
-3.02438585691306525e-09
2.19605866854215289e-07
-3.1063312965397678e-09
2.20667520873275411e-07
-3.15126594968532226e-09
2.21741208862743357e-07
-3.1826598691300499e-09
2.22818488652807234e-07
-3.19406972395178125e-09
2.23889470168953888e-07
-3.17850705434892183e-09
2.24947460136532033e-07
-3.14218231568102449e-09
2.25988940296597156e-07
-3.09512072421885094e-09
-3.04344281443742766e-09
2.27012119617756299e-07
2.13637900434180173e-07
-1.24218392579811075e-09
2.14309143219348664e-07
-2.27648145666700215e-09
2.15119509778711087e-07
-2.86650341757338452e-09
2.16004995925255873e-07
-3.23948539584385183e-09
2.16978070879925369e-07
-3.59620228963870334e-09
2.18022300439324485e-07
-3.90759069666916904e-09
2.19093001570575441e-07
-4.09509584029509061e-09
2.20167555294596832e-07
-4.18089387163673742e-09
2.21247215997273598e-07
-4.23093576507405989e-09
2.22332559123843732e-07
-4.26801233514125576e-09
2.23415843035670073e-07
-4.2773631404190548e-09
2.24488405770950468e-07
-4.25107917635180452e-09
2.25545260681768153e-07
-4.19904676776467982e-09
2.26583037653125519e-07
-4.13290744226670413e-09
-4.0581894656736373e-09
2.27597774575925466e-07
2.13846639153096874e-07
-1.79537260782901156e-09
2.14604294068482787e-07
-3.03414521655892257e-09
2.15421672856503579e-07
-3.68389107731317141e-09
2.16307049705852167e-07
-4.12487121202211979e-09
2.17295760412112226e-07
-4.58492201026769962e-09
2.18363877206825844e-07
-4.9757165177222685e-09
2.19463212470381152e-07
-5.19444005595612115e-09
2.20572414115832064e-07
-5.29010449675728734e-09
2.21691622820265862e-07
-5.35015360007919105e-09
2.22815790960761395e-07
-5.39218976514041996e-09
2.23933321859084768e-07
-5.39490344817056632e-09
2.25035662240565664e-07
-5.35342899020710166e-09
2.26118367420890587e-07
-5.28176148568746243e-09
2.27176714832467387e-07
-5.19126451200194474e-09
-5.08677094754459055e-09
2.2820528661674375e-07
2.13986199577725229e-07
-2.48810947213098385e-09
2.150508236887888e-07
-4.09877818548041726e-09
2.16083545305260386e-07
-4.71662158074714158e-09
2.17125744221526491e-07
-5.16707906884441059e-09
2.18255340158346199e-07
-5.71452692774704734e-09
2.19417647666485972e-07
-6.13803302536850098e-09
2.20556541056861305e-07
-6.33334244383148786e-09
2.21677659794320038e-07
-6.41123227456355914e-09
2.22796493399563673e-07
-6.46899635111140439e-09
2.2390809877335877e-07
-6.50380440540323018e-09
2.25000459512251818e-07
-6.48727355382238173e-09
2.26067517637156796e-07
-6.42049655193666809e-09
2.27106181912474571e-07
-6.32043528720721207e-09
2.28110159313907198e-07
-6.19525153164212027e-09
-6.04438811492668329e-09
2.29067766803571047e-07
2.14362937634479619e-07
-3.55758185707853874e-09
2.15509764922017326e-07
-5.24561433812235289e-09
2.16539925453436666e-07
-5.74679100277014399e-09
2.1763004694488699e-07
-6.25720948957398973e-09
2.18822360151765336e-07
-6.90684910080558056e-09
2.20018514237084301e-07
-7.33419610553059344e-09
2.21164854210560938e-07
-7.47969143713404919e-09
2.2227262576024223e-07
-7.51901289744667064e-09
2.23347195891910223e-07
-7.54357564025901272e-09
2.24376159532565472e-07
-7.53277730209836746e-09
2.25350355577751307e-07
-7.46147894704832783e-09
2.26268766983573782e-07
-7.33891738759557774e-09
2.27130294329654772e-07
-7.18197214767907805e-09
2.27929215844535432e-07
-6.99418264419809806e-09
-6.76901946251589499e-09
2.28653837523181806e-07
2.15173717168621837e-07
-5.43780798627542139e-09
2.16850527682376061e-07
-6.92243372086802149e-09
2.18022714509462327e-07
-6.91898672110973163e-09
2.1911133189525651e-07
-7.34583579943816222e-09
2.20123280144232137e-07
-7.91880630783634427e-09
2.20941986237055004e-07
-8.15291119014882163e-09
2.21593554136611686e-07
-8.13126836754244491e-09
2.22132146545621428e-07
-8.05761439304856232e-09
2.22565158068170799e-07
-7.97659632505366252e-09
2.22884567039911654e-07
-7.85219552367022409e-09
2.23096320308741389e-07
-7.67324155296878466e-09
2.23213417614944284e-07
-7.45602411402427005e-09
2.23245033774989379e-07
-7.21359781249064822e-09
2.23195491472155821e-07
-6.94464993234016499e-09
-6.63485833751009209e-09
2.23061320659781449e-07
2.14982873788321602e-07
-7.12718843555401479e-09
2.15686945122098797e-07
-7.62651392464932213e-09
2.15659918250528954e-07
-6.89196873994222464e-09
2.15413371980767082e-07
-7.09929844931902811e-09
2.14777392987772829e-07
-7.28283626903832993e-09
2.13776955119253072e-07
-7.15248231298842059e-09
2.12523262964899727e-07
-6.87758524853559559e-09
2.11077259979254596e-07
-6.61162050086289054e-09
2.09461287956659479e-07
-6.36063346848644739e-09
2.07704274262619977e-07
-6.09519107681440522e-09
2.05844701274959549e-07
-5.81367789726272936e-09
2.03914219606978499e-07
-5.52555186220703474e-09
2.01936152138220992e-07
-5.2355398512891265e-09
1.99933141727193644e-07
-4.9416491615908207e-09
-4.63837331617281758e-09
1.97936646758182758e-07
2.06166366839049581e-07
1.98539844042554928e-07
1.91647866410192103e-07
1.84548559040359752e-07
1.77265713817601608e-07
1.70113222511531608e-07
1.63235628223828027e-07
1.56623998624143327e-07
1.50263355986484181e-07
1.44168155661415369e-07
1.38354468431634516e-07
1.32828907142914586e-07
1.27593357709752909e-07
1.22651698483208998e-07
1.18013313191324013e-07
1.14465512574588549e-07
3.5475032504640171e-09
1.11060146265462683e-07
3.40534318903943123e-09
1.07804936011057033e-07
3.25516124067719364e-09
1.04707457065308969e-07
3.09736461447369571e-09
1.01764274896299863e-07
2.9429118929579024e-09
9.89682251020549487e-08
2.79542990261423867e-09
9.63138566547451575e-08
2.6530169018417059e-09
9.3796372953704744e-08
2.51470941728679279e-09
9.14095686476603477e-08
2.3814686551620955e-09
8.91456510347654227e-08
2.25432740856586967e-09
8.69961781693650757e-08
2.13341211537632209e-09
8.49529129812762657e-08
2.01839579659966676e-09
8.30075290702350819e-08
1.9090952983331803e-09
8.11520063097970524e-08
1.80538266759526429e-09
7.93794156662296045e-08
1.70690877812529047e-09
7.76845363166262706e-08
1.61313174864295699e-09
7.60638624026072546e-08
1.52351594443476139e-09
7.45150091355833947e-08
1.43765326549846758e-09
7.30359028552332137e-08
1.35523944948572692e-09
7.16242572156433909e-08
1.27598021288231527e-09
7.02776693766734798e-08
1.1994904139471687e-09
6.8994280478628155e-08
1.12521313429964736e-09
6.77733985274605406e-08
1.05258861826494197e-09
6.66149456874833897e-08
9.82078061035864866e-10
6.55161101159072253e-08
9.17892458298476679e-10
6.44631204920241789e-08
8.72188808054393586e-10
6.34327742118798493e-08
8.5477035870453661e-10
6.2439925246335539e-08
8.26116156290781402e-10
6.17178251603357642e-08
5.66652097167189763e-10
6.15791998841617818e-08
-1.75664795167528314e-11
6.18623764793229109e-08
-4.46207349807085905e-10
6.21223057603234152e-08
-4.17836960265901529e-10
6.19452925352306467e-08
4.46678195673532693e-11
6.14007566927485264e-08
4.22092714304840499e-10
6.09352293286838357e-08
3.5113262796434412e-10
6.05966983199912461e-08
2.36614046686545892e-10
6.01117620902308327e-08
3.92131989322515755e-10
5.95420160051655608e-08
4.81353959020205348e-10
5.95871826846418234e-08
-1.36018131170862375e-10
6.00123493944707117e-08
-5.28822336292773799e-10
6.06670889255702109e-08
-7.65019724749987272e-10
6.13431886726436096e-08
-7.82253468149328562e-10
6.14934239198774161e-08
-2.37140230438423624e-10
6.10030996596439233e-08
4.16579829833143753e-10
6.01981455647373178e-08
7.37426495509979291e-10
5.95759264337508483e-08
5.58672955589310379e-10
5.9595977513083778e-08
-8.22090940112417853e-11
5.98766811103017504e-08
-3.4336869449943884e-10
6.00704428005004874e-08
-2.48859096733773105e-10
6.01689814495196951e-08
-1.47087811221555586e-10
6.02331239165393627e-08
-1.08203912502538881e-10
6.03471461094748307e-08
-1.56238808322887682e-10
6.06828220121757985e-08
-3.77575252330919009e-10
6.12012088277744158e-08
-5.57114695279572447e-10
6.13058212540306922e-08
-1.33956573934942731e-10
6.0841747242289571e-08
4.33748779519925125e-10
6.03198089015696981e-08
5.0095182423785013e-10
5.98288524799583206e-08
4.72245824488282509e-10
5.94272472082248415e-08
3.8488366398813142e-10
5.91215326744589125e-08
2.88906248018708182e-10
5.88762390615851822e-08
2.31374881503660728e-10
5.86663580171682253e-08
1.98287363497900255e-10
5.84645175643598309e-08
1.91984032924802368e-10
5.8256038906716756e-08
2.00523393142360378e-10
5.80280271996097864e-08
2.21885969566421555e-10
5.77925334765274749e-08
2.30917809051568285e-10
5.76099187874954825e-08
1.79205043851337035e-10
5.7320937556561511e-08
2.86484229082136199e-10
5.67337896893626272e-08
5.85333586963551132e-10
5.67089328771331696e-08
2.34850357064388012e-11
5.73906548887788235e-08
-6.82887465604589603e-10
5.81746904328574771e-08
-7.8501388597380706e-10
5.84145205472791341e-08
-2.40449452379876597e-10
5.79282811096533198e-08
4.85901807990339313e-10
5.78625075462929953e-10
1.96330720609552626e-07
5.1530401587136441e-09
1.94696886877379884e-07
5.0391673599326459e-09
1.93049444533073429e-07
4.90259117999993052e-09
1.91410390654889059e-07
4.73639912101631268e-09
1.89787434215599177e-07
4.56583254210943121e-09
1.88179533835858209e-07
4.40325771482124359e-09
1.86587201679220517e-07
4.2451987227139658e-09
1.85014217283126915e-07
4.08738893491593922e-09
1.83463849498334354e-07
3.93124373242659309e-09
1.81937088022214205e-07
3.7799949295798751e-09
1.80433655378006934e-07
3.63495423282083247e-09
1.78953143719792231e-07
3.49583868332355763e-09
1.77495141922843717e-07
3.36236153742416515e-09
1.76058913037686088e-07
3.23462751939879287e-09
1.74643331401811566e-07
3.11261783561891879e-09
1.73247154907253991e-07
2.99589841491756198e-09
1.71869334372332267e-07
2.88377958361196307e-09
1.7050920640895623e-07
2.77553293097277666e-09
1.69166617908151783e-07
2.67040830874370932e-09
1.67842051742215904e-07
2.56752510059797653e-09
1.66536735705736121e-07
2.46580522562330863e-09
1.65252645672609474e-07
2.36404089194887358e-09
1.63992490751155813e-07
2.26114666250499014e-09
1.62760283182236919e-07
2.15665070103331424e-09
1.61563545521188843e-07
2.05127686996792017e-09
1.60421007086543609e-07
1.94538581963375672e-09
1.59377111261600902e-07
1.82586437881867132e-09
1.58529718031808536e-07
1.60800118378157582e-09
1.58134750672973526e-07
9.05272818461915209e-10
1.57719160510296384e-07
3.38935853602733449e-10
1.57016833360916172e-07
1.93987075412697874e-10
1.56005327160711606e-07
5.21468629004935386e-10
1.54976358105318805e-07
9.78877598576355262e-10
1.54315058198324547e-07
9.80970767461064331e-10
1.53638310261197831e-07
9.12221187558374183e-10
1.52897298183928643e-07
8.3698577639549621e-10
1.52478964476034872e-07
6.57238552457848128e-10
1.52938043502845384e-07
-1.07095224110356188e-10
1.53122822726428562e-07
-4.72816322733331865e-10
1.53004804467122858e-07
-6.08432259413002625e-10
1.52541413737075132e-07
-5.43364443751422692e-10
1.51565221726322019e-07
-1.99486458221382223e-11
1.50365614324038794e-07
7.53895526206864654e-10
1.49492819222158934e-07
1.07723461514858665e-09
1.49338747883281398e-07
7.05463488230211508e-10
1.49978726162348245e-07
-2.55766380881212713e-10
1.50310369836310452e-07
-6.20910690557622564e-10
1.50247545482956985e-07
-4.92140786362499749e-10
1.5012539224441249e-07
-3.21210990824944573e-10
1.5000950393886969e-07
-2.05439190317340554e-10
1.49950999506187459e-07
-2.06581675226205091e-10
1.50004996544706359e-07
-3.62240045187383939e-10
1.4993977166180203e-07
-5.09519396051610127e-10
1.49343792165148161e-07
-1.77404244533799654e-10
1.48549011816849142e-07
4.5442385691472271e-10
1.48187189985542368e-07
6.15730699855056159e-10
1.47950864415836593e-07
5.83938582708421592e-10
1.47781686232714989e-07
5.14697002270697807e-10
1.47642689552159051e-07
4.17619747844679506e-10
1.47505400642637827e-07
3.71218203227860408e-10
1.47336412084431505e-07
3.39891206935619429e-10
1.47142552915478979e-07
3.21431840949756602e-10
1.46875595180526581e-07
3.66360239633383935e-10
1.46542600868176023e-07
4.33870349205444094e-10
1.46152548815633515e-07
5.21568302349191663e-10
1.45682433294296942e-07
6.32274041465401053e-10
1.4506048226698164e-07
7.50545188052036843e-10
1.44547450566462781e-07
7.60837645918586226e-10
1.4507445953428995e-07
3.05563370764852175e-11
1.45362282336953193e-07
-2.85799757873857917e-10
1.45083579762824729e-07
-4.21843362606508861e-10
1.44266737249146327e-07
1.85309452786862884e-11
1.43203578265130968e-07
8.13031248729499196e-10
1.4256582107568207e-07
1.11685963789966813e-09
9.15528713724782391e-10
2.22917434527640218e-07
5.29674110369933905e-09
2.22736314773015944e-07
5.22027905638957339e-09
2.22512390715071235e-07
5.12650677938452266e-09
2.22249021073707765e-07
4.99975941888561567e-09
2.21952843735118814e-07
4.86199854350557621e-09
2.21626898128394237e-07
4.7291875952225298e-09
2.21272586125932629e-07
4.59948573082475037e-09
2.20892256493029998e-07
4.4676749750884869e-09
2.20488813355050926e-07
4.33460799827214581e-09
2.20064535605911003e-07
4.20413160544170664e-09
2.19621077612951865e-07
4.07816995129910925e-09
2.19159944125207028e-07
3.95657254282669852e-09
2.18682722886241756e-07
3.83894889516990952e-09
2.18190959374639637e-07
3.72542253971970353e-09
2.17686045468341787e-07
3.61610382971112067e-09
2.17169314414588486e-07
3.51059390314837843e-09
2.16642242091284575e-07
3.40803953454695633e-09
2.16106640391531565e-07
3.30735814605441948e-09
2.15564845232256678e-07
3.20725944064391785e-09
2.15019953211236561e-07
3.10608770866144838e-09
2.14476147011814917e-07
3.00166863846625761e-09
2.13939150438748438e-07
2.89125162694027912e-09
2.13416927874513195e-07
2.77152857424730969e-09
2.12921036474091331e-07
2.63852284215094209e-09
2.12469614098560911e-07
2.48646707351435373e-09
2.12092209871237557e-07
2.30410947947495825e-09
2.11825970022066271e-07
2.07124732882281792e-09
2.11642283848919982e-07
1.77168817743330288e-09
2.11098653878316298e-07
1.43263243376047113e-09
2.10327391395281547e-07
1.09718849465135912e-09
2.09570249708834115e-07
9.37090486689038608e-10
2.0922476843310547e-07
8.45890920584324754e-10
2.09272968005347412e-07
9.05068243658275097e-10
2.09319177924642186e-07
9.064592018706294e-10
2.09291858547300419e-07
9.06217338168724011e-10
2.09196674470175838e-07
8.94363266415393986e-10
2.09160880836997212e-07
6.55343016383761829e-10
2.08883262202276685e-07
1.27111639900329574e-10
2.08470667134733399e-07
-1.14338768515346746e-10
2.07961070724053326e-07
-1.66257265673422e-10
2.07215606269360336e-07
1.13938969439254918e-10
2.06608740009369088e-07
4.624775933623067e-10
2.06542111431153352e-07
6.7509521874500352e-10
2.06673182022230577e-07
8.0351089106176695e-10
2.0680568341413489e-07
4.34767329872260913e-10
2.06474306257770097e-07
-8.44341460625992599e-11
2.05892770552289479e-07
-2.44773445352855413e-10
2.05370346260440559e-07
-2.08567438166037241e-10
2.04919214435002524e-07
-1.24518230013981265e-10
2.04543924486221976e-07
-8.89391074682133204e-11
2.04192505537647743e-07
-1.05129642465800774e-10
2.03723112657102551e-07
-1.41387493299834499e-10
2.02966342397541959e-07
-5.25959675497168149e-12
2.02257189638478884e-07
2.63281963236882009e-10
2.02002838868095143e-07
4.08511148409694838e-10
2.01728953749688567e-07
5.50106874941978152e-10
2.01393253021376121e-07
5.36859930833374172e-10
2.01003423642653839e-07
4.92017009924598187e-10
2.00557041567806184e-07
4.46968037783210515e-10
2.00111963870564936e-07
4.12204528730090455e-10
1.99816818677175177e-07
3.87676068120870453e-10
1.99683421990904717e-07
3.7663411776564131e-10
1.99505274920250184e-07
4.30231602278032624e-10
1.9928808115406053e-07
4.98467508553802094e-10
1.99037007649019603e-07
5.67185085570268558e-10
1.98767950300974206e-07
6.50101064829810016e-10
1.98476620101577206e-07
7.60889102156282911e-10
1.98252019372358817e-07
7.21125990357830159e-10
1.9778195822375582e-07
2.82655265108929692e-10
1.97220678191822217e-07
1.24683574657806165e-10
1.96355390139128019e-07
3.31277517965094265e-10
1.95691337752142817e-07
5.93542706866721291e-10
1.9567589492200706e-07
7.63555605223309155e-10
1.95797009451744451e-07
9.48029183431927849e-10
7.95420863369489552e-10
2.2919645795637831e-07
4.75414881518760701e-09
2.29721156261487733e-07
4.69557287707776048e-09
2.30216403341586796e-07
4.63125172286654718e-09
2.30674682010331212e-07
4.54147261987028373e-09
2.3109800990824487e-07
4.43866223564997224e-09
2.31489490333359365e-07
4.33769820244123443e-09
2.31849464888075177e-07
4.23950107837082513e-09
2.32177744320696124e-07
4.1393832008463402e-09
2.3247538328385139e-07
4.03695241003554435e-09
2.32744120463520326e-07
3.9353703465798364e-09
2.32985487184426718e-07
3.8367666517907161e-09
2.33200794417883008e-07
3.74120860615309602e-09
2.33391388174406234e-07
3.6482672803039824e-09
2.33558690874458016e-07
3.55798548285229221e-09
2.33704075432092385e-07
3.47051785046258614e-09
2.33828810940743373e-07
3.38556328803290703e-09
2.33934130467246565e-07
3.30229781212729639e-09
2.34021322298682933e-07
3.21957619921671971e-09
2.34091789706139953e-07
3.13598517735169119e-09
2.34147078874264319e-07
3.04971764970337527e-09
2.34188870676846146e-07
2.95845619025177136e-09
2.34218914318151154e-07
2.85937427492595362e-09
2.34238930980798609e-07
2.74918622183760387e-09
2.34250606686148989e-07
2.623957840919568e-09
2.34255603682597243e-07
2.47796650962161847e-09
2.34255249432236022e-07
2.30030509684898075e-09
2.34252674714834962e-07
2.06903191039022852e-09
2.34266222090608517e-07
1.75295041054298017e-09
2.34345850730465581e-07
1.34776394349065636e-09
2.34403765787157519e-07
1.03403407161251388e-09
2.34437386906404366e-07
8.98271676709930244e-10
2.34290419329509766e-07
9.87068945700609508e-10
2.34111051971270576e-07
1.07795147090668913e-09
2.33951364937495879e-07
1.05905143681436469e-09
2.33904489332955445e-07
9.44397311651987606e-10
2.34038781251706635e-07
7.4940609935755146e-10
2.34204939290881373e-07
4.78860254429831784e-10
2.34208832476754932e-07
1.11279218048064444e-10
2.34114224190430417e-07
-3.44442508751096257e-11
2.33867835933428955e-07
6.13138591976204705e-11
2.33733938462036522e-07
2.18332781134312063e-10
2.33753722608707562e-07
3.97543431891219877e-10
2.33754473676627109e-07
6.10697828289631845e-10
2.33872630386552539e-07
6.19544943220788494e-10
2.33890999391573759e-07
3.4748727420851778e-10
2.33655885463959641e-07
6.8163648623281457e-11
2.3332116300412035e-07
-1.14856586907668664e-11
2.32990039139688815e-07
-1.8020693610382679e-12
2.32679667392578939e-07
3.35349648319542935e-11
2.32364941576457008e-07
4.40394322364768805e-11
2.32017784423920817e-07
3.26634573238521947e-11
2.31549558968242108e-07
9.62922650136590977e-11
2.31105889921007219e-07
1.89494372107905711e-10
2.30775911448971027e-07
3.25321231863283906e-10
2.30358299050667926e-07
5.54722172245349381e-10
2.29985235418079061e-07
6.35928375557080287e-10
2.29558688667520862e-07
6.18741807792954816e-10
2.29041477250487444e-07
5.54584867752234441e-10
2.28407722538883751e-07
4.96841244238093219e-10
2.27638437448392415e-07
4.61381204984823153e-10
2.26979431698411394e-07
4.6079354504580765e-10
2.26686610259269253e-07
4.51766159861465485e-10
2.26435745659677311e-07
5.11214139555168397e-10
2.26181316688949587e-07
5.78071264892420302e-10
2.25886752610281511e-07
6.3792269320641137e-10
2.25562120308137911e-07
6.83854765237265799e-10
2.25277316814921526e-07
6.72422293802321187e-10
2.24988235181537195e-07
5.77548310162592333e-10
2.24378463245325502e-07
4.0355650961735986e-10
2.23783119785237177e-07
3.20436318899351954e-10
2.23405079345488199e-07
4.02334838252359372e-10
2.23151661352561159e-07
6.02302755833783218e-10
2.22879579831402545e-07
8.59557495916092897e-10
2.22771034282247148e-07
9.29097617672844158e-10
8.36200727140282263e-10
2.29816232663490482e-07
4.00581077199708052e-09
2.30554226002480047e-07
3.95757167962803761e-09
2.31279757628056887e-07
3.90571217465105636e-09
2.31982849354226745e-07
3.83837290241406949e-09
2.32660756099393264e-07
3.76074742258939373e-09
2.33315404969127987e-07
3.68304116238963662e-09
2.33947438396565233e-07
3.60745931444511755e-09
2.34556009040007807e-07
3.53080392077255892e-09
2.35140954894040198e-07
3.45199739049998749e-09
2.35703101894307205e-07
3.37321326501651853e-09
2.36243365455285695e-07
3.29649146197424019e-09
2.3676241627582454e-07
3.22214361829104299e-09
2.37260914777794279e-07
3.14975057100610605e-09
2.37739685086770775e-07
3.07919073234768637e-09
2.38199640224170942e-07
3.0105289387442817e-09
2.38641678729964971e-07
2.94347741654671237e-09
2.39066704173074392e-07
2.87720571922884577e-09
2.3947568806004283e-07
2.81049894961998231e-09
2.39869741758379094e-07