/*--------------------------------*- C++ -*----------------------------------*\
  =========                 |
  \\      /  F ield         | OpenFOAM: The Open Source CFD Toolbox
   \\    /   O peration     | Website:  https://openfoam.org
    \\  /    A nd           | Version:  8
     \\/     M anipulation  |
\*---------------------------------------------------------------------------*/
FoamFile
{
    version     2.0;
    format      ascii;
    class       volScalarField;
    location    "0.2";
    object      rho;
}
// * * * * * * * * * * * * * * * * * * * * * * * * * * * * * * * * * * * * * //

dimensions      [1 -3 0 0 0 0 0];

internalField   nonuniform List<scalar> 
1800
(
0.853174256605902515
0.853173972660514979
0.853173825944268494
0.853173803697497513
0.853173781890287364
0.853173729380194423
0.853173670127779449
0.853173621268226823
0.853173580575249835
0.853173540324601465
0.853173497982911644
0.853173455275880732
0.853173413450009299
0.853173369998721731
0.853173313658097121
0.853174008855042798
0.853173913867670941
0.853173822085415479
0.85317378537343691
0.853173759778781848
0.8531737160775269
0.853173663481501032
0.853173616797628154
0.853173576981807957
0.853173537920072778
0.853173496862318026
0.853173455241309275
0.853173414761735582
0.853173375282425539
0.853173334941136341
0.853173999648934922
0.853173928016906502
0.853173837700175852
0.853173785846070065
0.853173756740787992
0.85317371852717061
0.853173669398305745
0.853173622297340728
0.853173581429138794
0.853173542365255999
0.853173501840650106
0.853173460605571754
0.853173420347872913
0.853173381417188792
0.853173343318560762
0.853173896475214133
0.853173858009143804
0.853173803070408576
0.853173763816730157
0.853173736622600321
0.85317370283426941
0.8531736594469993
0.85317361572477235
0.853173576359298913
0.853173538705914725
0.853173499821994086
0.853173459993991523
0.853173420781990322
0.853173382810942904
0.853173345920304693
0.853173886309454677
0.853173862312998077
0.853173815390806278
0.853173770761292083
0.853173736791831616
0.853173702738176609
0.853173662308287062
0.853173619888983215
0.853173580005906707
0.853173541925853374
0.853173503336874917
0.853173463989681524
0.853173425050213097
0.853173387229469449
0.85317335052778287
0.853173837325225892
0.853173817369726306
0.853173782000191894
0.853173747759448431
0.853173719296734356
0.853173689363020293
0.853173653244748587
0.853173613932266761
0.853173575603468959
0.853173538616968985
0.853173501308550408
0.853173463190728287
0.85317342511891936
0.853173387863061405
0.853173351556865689
0.85317383046571682
0.853173818906107884
0.853173791019447125
0.853173756580743681
0.853173723868905776
0.853173691504183873
0.853173655713170387
0.853173617112790383
0.853173578621057471
0.853173541162180582
0.853173503745372597
0.853173465817544274
0.853173427867167544
0.853173390591020153
0.853173354238951132
0.853173807121633931
0.853173794210711489
0.853173768085364048
0.853173738020633676
0.853173709635337674
0.853173680749919616
0.853173648107912408
0.853173611959622602
0.853173574938583923
0.853173538388217856
0.853173501824464275
0.853173464811495474
0.853173427535286133
0.853173390643351071
0.853173354551969187
0.853173805864258394
0.853173797621941787
0.85317377658496707
0.85317374761414122
0.853173716815903149
0.853173685518972547
0.853173651668558963
0.85317361510492784
0.853173577579765752
0.853173540443281531
0.853173503582052462
0.85317346635536917
0.853173428981604087
0.853173392008649945
0.853173355715862169
0.853173797286056357
0.853173787066600742
0.853173764242435073
0.853173735672485889
0.853173707049902585
0.853173678260743418
0.853173646430787858
0.853173611330330317
0.853173574815957458
0.853173538403228626
0.85317350210488585
0.853173465435755451
0.853173428448040339
0.853173391664162062
0.853173355549983969
0.853173797523073985
0.85317378719066117
0.8531737643800541
0.853173735766581509
0.853173707226001721
0.85317367838010405
0.853173646663434315
0.853173611512010988
0.853173574983301708
0.853173538650775942
0.853173502401731287
0.853173465671851927
0.853173428632478692
0.853173391915647228
0.853173355807068323
0.853173805949274278
0.853173797697450276
0.853173776685762442
0.853173747664387139
0.853173716951075689
0.853173685574421969
0.853173651825524515
0.853173615256320295
0.853173577735716226
0.853173540626662619
0.853173503710429548
0.853173466529251856
0.853173429135087869
0.853173392115637697
0.853173355881802542
0.853173807121879402
0.853173794188691659
0.853173768060955351
0.853173738055362008
0.853173709616950382
0.853173680796794009
0.853173648068780488
0.853173611897675932
0.853173574879601881
0.85317353836495935
0.85317350190322927
0.853173464806142423
0.853173427521920935
0.853173390707231749
0.853173354545786911
0.853173830459994731
0.85317381889326116
0.853173791006680116
0.853173756587552568
0.853173723864654288
0.853173691513538501
0.85317365568948611
0.853173617073569868
0.85317357858480436
0.853173541148958159
0.853173503770593422
0.853173465821059795
0.853173427867814915
0.853173390613696903
0.853173354238333292
0.853173837317351969
0.853173817360043052
0.853173781991307778
0.853173747757356438
0.853173719292632415
0.853173689360174792
0.853173653227612738
0.85317361390647195
0.853173575579997845
0.853173538606776138
0.853173501315249494
0.853173463193902859
0.853173425121906526
0.85317338787230268
0.853173351558102144
0.853173886301350715
0.85317386230444836
0.853173815382777256
0.853173770755654703
0.853173736785832304
0.853173702731043315
0.85317366229445013
0.853173619870689515
0.853173579989310982
0.853173541916848022
0.853173503336547512
0.853173463990711145
0.853173425052315748
0.853173387234132385
0.853173350531855279
0.853173896466931647
0.853173858000875973
0.853173803062481584
0.853173763809601859
0.853173736615200684
0.853173702825614555
0.853173659435020326
0.853173615710634103
0.853173576346437978
0.853173538697587275
0.853173499818795533
0.853173459993236571
0.853173420783288838
0.853173382816592829
0.853173345939224004
0.853173999640679748
0.853173928008675087
0.853173837692074111
0.853173785838170273
0.853173756732585553
0.853173718518013491
0.853173669387427447
0.853173622285484323
0.85317358141830113
0.853173542357343773
0.853173501836192338
0.853173460603855904
0.853173420350396672
0.853173381435172073
0.853173343401964379
0.853174008846746768
0.853173913859418209
0.853173822077194832
0.853173785365174964
0.85317375977017984
0.853173716068216348
0.8531736634712348
0.853173616786966016
0.853173576972021785
0.853173537912386704
0.853173496857139835
0.853173455238111389
0.853173414759620607
0.853173375280499746
0.853173334949759776
0.853174256597583391
0.853173972652220058
0.853173825935972463
0.853173803689123877
0.853173781881576887
0.8531737293708892
0.853173670117813643
0.853173621258095705
0.853173580565938727
0.853173540317098911
0.853173497978003348
0.85317345527636923
0.853173413476308484
0.853173370179213575
0.853173314685518713
0.853173242531406362
0.853173103911169739
0.853172759791550051
0.853171888404684942
0.853169734136233759
0.853164633404233874
0.85315321762281715
0.853129243157128014
0.853082174690643069
0.852995979393085468
0.852849298737801798
0.852622112103569862
0.852290309354688636
0.851827841280816678
0.851215367003180234
0.850444820462707529
0.849520462330432879
0.848455012029171507
0.847262564594170375
0.845952581979615315
0.844528994480689965
0.842994950055895753
0.841359825223955582
0.839644295774715443
0.837886534509961867
0.836139148731255832
0.834465008150697796
0.832908383239656214
0.831498316822083749
0.830219151275525369
0.828967544942469825
0.827756854332730385
0.82670811954762935
0.825868682642962537
0.825126592676907911
0.824488972764574779
0.823954894272989624
0.823505479201544377
0.82311745222032362
0.822638247709560178
0.822044912384848003
0.821401894034790359
0.820835524129849947
0.820411989872604774
0.820053668285838255
0.819732131596294877
0.81943083854603227
0.819118542192406762
0.818825363147868135
0.818579035983342695
0.818370212112446094
0.818179965638180184
0.817989263184754734
0.81780957045224989
0.817600467487090588
0.817461448548273184
0.817318194338271131
0.817228907273017335
0.817146102817750797
0.817069600483071867
0.81699926699613612
0.816942414941565609
0.816894409525569354
0.816855049978126857
0.816824016097895234
0.816800500478508607
0.81678313221979193
0.816770461506353573
0.816761650791802407
0.816755621303915436
0.816750738591262349
0.81674632651458634
0.816742565225954453
0.816740482039872373
0.816739327852577079
0.853173299296309251
0.853173261969231933
0.853173201414812232
0.85317308491977073
0.853172840189122983
0.853172302142849559
0.853171127560360065
0.853168661913953241
0.853163750930481024
0.853154522797206605
0.853138570442258382
0.853112797565688474
0.853072949314941931
0.853013939645055785
0.852930150257937614
0.852815907072636881
0.852665977401035002
0.85247588637161642
0.852241935959605068
0.851961000548819625
0.851630356239350683
0.851247814780092704
0.850812255851025157
0.850324889224692182
0.849788893480264429
0.849202812318265443
0.848568462570771898
0.847937719745637364
0.847393817268235372
0.846871243694461984
0.846331281383293943
0.845756126186339108
0.845063596824139562
0.844266858708279222
0.843438361723623076
0.842486015700497526
0.841397303583031775
0.840521429784089391
0.839640685758822225
0.838578545544074738
0.837267770576092252
0.835778190658702846
0.834597971171605724
0.833398407241174088
0.832301834902861692
0.831423869060716636
0.830485512977800155
0.829425474159147025
0.82841432130717918
0.827513996510413574
0.826729078747352908
0.82607069484967266
0.825293180392427606
0.824256095953968204
0.823214597981341889
0.822278158982776453
0.821488006222000799
0.820842833131909755
0.820300809858684477
0.819861540581365733
0.819592275085607946
0.819269213189019019
0.81889391187607885
0.81847160544137787
0.818066459371003085
0.817728762702445544
0.8174808300293539
0.817287730097944309
0.817146493691486731
0.817049494385035047
0.816970940204411855
0.816905054239870143
0.816854714802829562
0.816817837408760017
0.816791014822474737
0.853173310224618509
0.853173281835306052
0.853173250830822183
0.853173211616721328
0.853173157647690084
0.853173071784421366
0.853172914864771426
0.853172610550229971
0.853172021996025931
0.853170940060367755
0.85316907381736784
0.853165976645828938
0.853161040224429068
0.853153471157861776
0.853142286148557916
0.853126328658736277
0.853104303536311948
0.853074817746380165
0.853036413781576131
0.852987590848945931
0.852926827142356569
0.852852623844534086
0.852763561991922603
0.852658566458602607
0.852537357035720644
0.852399030714763972
0.852241569146442113
0.852075448437714211
0.85192820902386468
0.851817762991678218
0.85171208121483577
0.851570776361476156
0.851369057578865718
0.851150107212189866
0.850909157464258659
0.85063484438614656
0.850358991692343746
0.850082302730245098
0.84977751246234412
0.849410990609979488
0.848982749561062011
0.848429996054317459
0.847654182188975258
0.846831289288365485
0.846077217276885007
0.845344308047417448
0.844472701649405133
0.84342012425177193
0.842274224660240045
0.841107076909026197
0.840002360440611051
0.838969186762398955
0.837899307798222859
0.836800732957396209
0.835551801233799796
0.834156207066534705
0.832594149681455731
0.830901313730609714
0.829153638312231767
0.827408019166028574
0.826038384733028264
0.82537460170158039
0.824888008745300993
0.824301726268459101
0.82355533258111624
0.8226319944235434
0.821580477974074408
0.820524574148429053
0.819575750561047367
0.818876444644710877
0.818375577562704737
0.817982038718044646
0.817654007844328068
0.817412463231955488
0.81722205918862123
0.853173312450628329
0.853173284569057833
0.853173258038228077
0.853173229111269693
0.853173197614090717
0.853173163333687645
0.853173122298750863
0.853173065269667963
0.853172976384519943
0.853172834634650656
0.853172603101750693
0.853172226221549423
0.853171623759140019
0.85317068460540979
0.853169260811490138
0.853167162768207477
0.853164156232814275
0.853159961233825093
0.853154252422244963
0.853146660556086456
0.853136776008915354
0.853124158290129775
0.853108342602995284
0.853088881937085541
0.853065454687975011
0.853037832471219004
0.853005863996407321
0.852970338323683519
0.852933642398822078
0.852897225517633251
0.852861254877390174
0.852823238027658137
0.852779279545654911
0.852731251949599756
0.852676738992085292
0.852608870811365049
0.852538303246249241
0.852476091036640127
0.852401025560791448
0.852313275470074627
0.852194497161823716
0.852015250640396293
0.85174692462139534
0.851435730560862525
0.851127453099310705
0.850791202333707863
0.850390216633376772
0.849905116818676198
0.849319393326645078
0.848626783834282916
0.847831110279737787
0.846952048747274588
0.8460269124556552
0.84501773666849811
0.843977315372035908
0.842906771932768861
0.841711892685814922
0.84019135371103093
0.838192979358734713
0.83575260091643222
0.833032931159279788
0.831377392742795096
0.830714523662923199
0.830052952716886838
0.829295643559465612
0.828338300324097609
0.827112531170298038
0.825641919627610799
0.82402645226350224
0.822350858538291041
0.821077617761575507
0.820081349169183627
0.819258105437948192
0.818657844332809415
0.818186049966490025
0.853173316601172349
0.853173288136293007
0.853173262134088617
0.85317323468627515
0.853173205746540542
0.853173177045216558
0.853173148879964538
0.85317311969195031
0.853173087381959516
0.853173049452563337
0.853173001915937812
0.853172938205652653
0.853172848211927293
0.853172717301866168
0.853172525053005337
0.853172243737063463
0.853171836768015779
0.853171257221501556
0.853170446549569084
0.853169333585973022
0.853167833735257064
0.85316584949044183
0.853163268555720777
0.853159964999246512
0.853155823472050434
0.853150744956386542
0.853144631335291947
0.853137569833083198
0.853129834668823417
0.8531214679969783
0.853112251152719048
0.853101432288574379
0.853088744062122539
0.853074154531022866
0.853057722293399823
0.853038497609804991
0.853015472345182157
0.852990257331796009
0.852961885263226249
0.852923532511141502
0.852866617506962132
0.852782490706276763
0.852656328093714277
0.852499361201532579
0.852328503474766519
0.852140946260614873
0.85191697231980601
0.851646145790108555
0.851315423681821559
0.850912593584190136
0.850425030791050807
0.849841286522218797
0.849145132337088882
0.848335170067716637
0.847482196115589725
0.84663413487108885
0.845696194830413361
0.844420608075365342
0.842651336861615974
0.840189175569789004
0.83694916209003356
0.834975039876644676
0.834204226991772324
0.833477527396835449
0.83268594491582959
0.831718533102784319
0.830485537437131383
0.828984115780755704
0.82716848400366394
0.82503709914732315
0.823287242128990071
0.821864082910359284
0.820638008172956623
0.819735709441910765
0.819027295815884515
0.853173317420837907
0.853173288860116785
0.853173263238369617
0.853173236475479824
0.8531732082255431
0.853173180354320437
0.853173153775896975
0.853173127895840211
0.853173101909185272
0.853173075494001898
0.85317304845999975
0.853173020157577122
0.853172989274156079
0.853172953843037818
0.853172911125446909
0.853172857267296747
0.853172786890308177
0.853172692617350181
0.853172564664081645
0.853172390596639851
0.853172154833992336
0.85317183862090018
0.853171418929960845
0.853170864000418749
0.853170133501042316
0.853169201636987951
0.853168069470887191
0.853166705888706134
0.853165044208796908
0.853162913692780633
0.853160213224032238
0.853156657317440947
0.853151800293404761
0.853145679243995536
0.853137984508045011
0.853127699220536551
0.853114100326117675
0.853096924291463221
0.853074373712304657
0.853040981251639963
0.852991490222204218
0.852917769798193892
0.852805869318890242
0.852673581494901023
0.852532373522724374
0.852375178107551479
0.852192186193884149
0.851972854913515709
0.851709334100642756
0.851391571583597018
0.851005974392382125
0.850535513568209334
0.849966868838719858
0.849309619421742878
0.848618327807452499
0.8478719585038339
0.846905625318415511
0.845553136533407579
0.843652551344545976
0.840964826595329229
0.837632842161786795
0.83613395947518987
0.83534019854680186
0.834559404800850668
0.833689220482245252
0.832628429208610354
0.831332488002688996
0.829779976508095873
0.827873102149197293
0.825669400174111723
0.823848341075993917
0.822338226203179312
0.821024861110724147
0.820040929830975651
0.819263948138008513
0.853173320055683804
0.853173291311743576
0.853173265647055423
0.853173239015329377
0.85317321086495701
0.853173182982907341
0.853173156433824631
0.853173130817450165
0.8531731054472107
0.853173080200279044
0.853173055297757221
0.853173030789392994
0.853173006423799007
0.853172981793792418
0.8531729564426348
0.853172929737936792
0.85317290077170127
0.853172868076891078
0.853172829460461468
0.853172782299198795
0.853172723249598253
0.85317264857355124
0.853172551518269762
0.853172419784236746
0.853172240082047506
0.853172000402969255
0.853171678710246906
0.853171229983066715
0.853170600734028728
0.85316970841959705
0.853168425560730803
0.853166558646833773
0.853163826246651991
0.853159816633187518
0.853153928695628783
0.853145261634119634
0.853132431540108205
0.853113880946559155
0.853086378506797249
0.853044387900216639
0.852979550490337135
0.852878346224719364
0.852738000227815318
0.852631112121959078
0.852511992235688632
0.852373778315558495
0.852202985560184034
0.851994450694000816
0.851743270465717628
0.851440690672927603
0.851073836408311246
0.850633616384206315
0.850122115018793534
0.849555280904812138
0.848923930525843029
0.84810570401464036
0.84695723579230664
0.845349820393705542
0.84308327906249958
0.839784612144809262
0.837075796137728867
0.8361300925690901
0.835314731724584481
0.834505048737010258
0.833565662286044784
0.832406959284991421
0.831049077049380136
0.829451893301745291
0.827486693644858384
0.825351142323420772
0.823595560285383943
0.822137399965473303
0.820860982978377618
0.819895651734243169
0.819137853321420084
0.853173320365369081
0.853173291674341638
0.85317326615718625
0.853173239750015133
0.853173211802602638
0.853173184042960608
0.853173157585058406
0.853173132097540199
0.853173106907650469
0.853173081876666961
0.853173057256894296
0.85317303319376947
0.85317300956967379
0.853172986169378089
0.853172962804560342
0.853172939261158669
0.853172915173437185
0.853172889928073164
0.853172862583305047
0.853172831710005686
0.853172796109213705
0.853172753746549328
0.853172699702458459
0.853172627773643444
0.853172528413824294
0.853172386906564606
0.853172180565172966
0.853171874322323665
0.853171414485678792
0.853170715627794007
0.853169644195927002
0.853167989873611976
0.853165413486367208
0.853161363797074301
0.853154933082869937
0.853144607717241876
0.85312785423033477
0.85310045505838672
0.853055125806206238
0.85297637013183869
0.852912179424251682
0.852844956711722002
0.852742124886676889
0.852593316680147817
0.852455952499242886
0.852329375607771111
0.852181006097913474
0.851996220958924133
0.851760209436054128
0.851466033662347188
0.851111689192266541
0.850703290020091485
0.850242962382997125
0.849716463363647367
0.849036777438189394
0.848071622139357273
0.846708411645880399
0.844776519280146743
0.842041416709968238
0.838547879776269878
0.836745279797656338
0.835953788363024919
0.835188297750363406
0.83435551460627333
0.833359751965151774
0.832151291760922729
0.830762184828964245
0.82913744629394881
0.827142309152901656
0.825108111920584752
0.823426652168222861
0.822010746057889263
0.820747663442824127
0.819785477514613281
0.819039450483611264
0.853173321493907788
0.853173292727805066
0.853173267167781968
0.853173240772102659
0.853173212837045614
0.853173185050621452
0.853173158537998355
0.853173133003520157
0.853173107784054197
0.853173082725791398
0.853173058078164459
0.853173034007838726
0.853173010424872258
0.853172987136478822
0.853172963985254995
0.853172940813120784
0.853172917343932746
0.853172893098218754
0.85317286733697284
0.853172838969953773
0.853172806783370041
0.853172768309305107
0.853172719895942233
0.85317265580474333
0.853172566604132099
0.853172436940061951
0.853172242102088085
0.853171942681036466
0.853171479096670127
0.85317074790142966
0.853169578242751081
0.853167687928720331
0.853164610219938169
0.853159570142050128
0.853151270083765012
0.853137543162207246
0.85311487369861938
0.853077787402583887
0.853016301305900781
0.852971625666991695
0.852924491812826147
0.852854823867677192
0.852748417919984902
0.852597849095326876
0.852401984575727023
0.852216493704681222
0.852081473208729623
0.851915325228749021
0.851711060653320917
0.851448953254847929
0.851125342861916989
0.850746540155500552
0.85030251853667993
0.849751215984010488
0.848969063532743817
0.847853690837851337
0.84627331962872776
0.844026783566331318
0.840765826005894779
0.83779868626849241
0.836710129108868106
0.835947796223416417
0.835199526412880755
0.834356609493021151
0.833330858972999633
0.832114024284050124
0.830729901218608791
0.829124409528823714
0.827168377965148638
0.825274791264376306
0.82366515549845476
0.822278148469861025
0.820985330252972045
0.81997574191779754
0.819188021752761841
0.853173321383723482
0.85317329264102415
0.853173267150893588
0.853173240826862966
0.853173212932965552
0.853173185179289306
0.85317315870121313
0.853173133195765376
0.853173108024804838
0.853173083021485201
0.853173058422330821
0.853173034401400798
0.853173010874699767
0.853172987654330028
0.853172964590324323
0.853172941540260132
0.853172918254418988
0.853172894292488326
0.853172868972461251
0.853172841281170657
0.853172809703143242
0.853172771885606585
0.853172723988942949
0.853172659770601749
0.853172569500468603
0.853172437548189277
0.853172237262259658
0.853171922730043386
0.853171412775553639
0.85317058136137458
0.853169218677195196
0.853166973466648937
0.853163258764582544
0.85315708699673698
0.853146769946701911
0.85312948333448424
0.853101640091228908
0.853060484844579636
0.853032416970877949
0.852999842542099596
0.852952140768964751
0.852875824877075361
0.852762433912106044
0.852605640874243065
0.852402657663731689
0.852155279354950612
0.851937434369514524
0.851792152843789174
0.85161572646382766
0.851400506243163546
0.851124988109346892
0.850784770752937014
0.850358501649558174
0.849786284836524075
0.848952668401248611
0.847756065753204391
0.846047845226903239
0.843642630051077869
0.840318810810451677
0.838231206740260859
0.837453596880070483
0.836729142204833853
0.835948896866790747
0.835067085827310485
0.833944585986482023
0.83257320907872534
0.830978812331547578
0.829161253425887868
0.827104596068290787
0.82528736454938445
0.823757908223406776
0.822474435129309844
0.821222049923030051
0.820196888922937406
0.819377539944051492
0.853173321594783429
0.853173292923845583
0.85317326742024846
0.853173241083253431
0.853173213221245952
0.853173185460606498
0.853173158949640853
0.853173133453320576
0.853173108274688841
0.853173083252233955
0.853173058641430004
0.853173034614080561
0.853173011091412525
0.853172987890600698
0.853172964870265615
0.853172941900682713
0.853172918748973941
0.85317289499490212
0.853172869973466863
0.853172842668629139
0.85317281148556412
0.853172773883434932
0.853172725815502409
0.853172660628017332
0.853172567381191738
0.853172428504098912
0.853172215466579842
0.853171879335985373
0.853171334490678168
0.853170440270941355
0.853168962541255516
0.853166507819515529
0.853162412316874841
0.853155535677598609
0.85314393191851845
0.853125130883369387
0.853098241363470677
0.853080366501192122
0.853058977228049242
0.853023326934262083
0.85296635458359904
0.852880920188238467
0.852760588497033067
0.852601025377057287
0.852398439460413826
0.852150560961922765
0.851856344250263575
0.851651426272122092
0.851494409704512734
0.851307332585084953
0.851072322316356655
0.850769117896832627
0.85036532619398586
0.849779683279623721
0.848915446212511471
0.847668110756913951
0.845878808663512394
0.843286434412091168
0.840598402565878366
0.839427787122854263
0.838787708354146844
0.838078201830673941
0.83722594220360036
0.836333733690097225
0.835070610722972062
0.833452792159543709
0.831549642974354408
0.829393783166839094
0.827243921096927237
0.825402168676249937
0.823823761819044931
0.822520696070944024
0.821262552869264528
0.82021564389415802
0.819371103365167164
0.8531733216556463
0.85317329290697419
0.853173267344950359
0.853173240946207168
0.853173213017183518
0.853173185227437902
0.853173158710418322
0.853173133183983579
0.85317310797449375
0.853173082925303139
0.853173058294232733
0.853173034255000684
0.85317301072895102
0.85317298754073212
0.853172964559616887
0.853172941666257567
0.853172918638757549
0.853172895069011061
0.853172870299045427
0.853172843298262151
0.853172812416424731
0.853172774971994508
0.853172726596493014
0.853172660122598847
0.853172563679309826
0.853172417034132047
0.853172186016122325
0.853171814130222028
0.853171207371789531
0.853170202525857291
0.853168520196079694
0.85316568897475864
0.853160924316571534
0.853152858250418089
0.85313857159148998
0.853126996416276429
0.85311559537026127
0.853101236333119517
0.853077275449949268
0.853039007167217145
0.852979370038327245
0.852889429791190978
0.852761573901059444
0.85259050413214621
0.852375702431440341
0.852121554811014481
0.851836158636643859
0.851513913550696389
0.85134926836731406
0.851168744049611625
0.850954107405980653
0.850670453928487169
0.85027256831321063
0.849654575161408077
0.848732759899563205
0.847390872605184864
0.8454869850537029
0.842861220615309659
0.841185562446594925
0.840536195964866506
0.839905564551868822
0.839289525803675329
0.838537109570430594
0.837433098665448461
0.835878259244744681
0.833898143346397669
0.831547038880276146
0.82911952794649213
0.826990913029416963
0.825162375945432514
0.823556243042835034
0.82225820347799905
0.821047719716359037
0.820033629123291696
0.819211692203059227
0.853173320341531594
0.853173291654885202
0.853173266143834264
0.853173239741226608
0.853173211801054321
0.85317318404719511
0.853173157593783649
0.853173132119954492
0.853173106951931159
0.853173081957839696
0.853173057399103318
0.853173033436336548
0.853173009980814689
0.853172986861654881
0.853172963957407826
0.853172941152409492
0.853172918222923293
0.853172894756451861
0.853172870084023649
0.853172843144069271
0.853172812214616272
0.853172774465673522
0.853172725235552099
0.853172656813928065
0.853172556284034322
0.853172401869745523
0.853172156909976165
0.853171760011908087
0.853171108317278604
0.853170028521912038
0.853168229788217714
0.853165212118164318
0.85316003838780341
0.85315067283015078
0.853142176733201141
0.853134178194958404
0.853124535996290789
0.853108753097458261
0.853083338221269138
0.85304349144555347
0.85298246711643444
0.852890115054523057
0.852758356159854847
0.852583983712661309
0.852366557034507699
0.852108989910338344
0.851815969450879895
0.851494982855507843
0.851200072635479033
0.851025773696244325
0.850814595898452541
0.850546345125379188
0.8501460883177967
0.849498560036835992
0.848506632104161551
0.847033691564576086
0.844842451324936627
0.842984528309972059
0.842321654858724123
0.841704165476946042
0.841074692798759127
0.840397437729743735
0.839502039288181789
0.838175413554809068
0.836211865621685368
0.833668151093162613
0.83093521516752411
0.828533694197150061
0.826448750419942146
0.824668075750562446
0.823122162020453296
0.82187803571102569
0.820774529213018078
0.81982083443548337
0.819034669045786257
0.853173320044262384
0.853173291299986647
0.853173265639022405
0.853173239012796292
0.853173210871154164
0.853173183002464253
0.853173156477781247
0.853173130908819521
0.853173105624620565
0.853173080532742212
0.853173055904477895
0.853173031872392906
0.853173008316224224
0.853172985044603704
0.853172961909800631
0.853172938745028975
0.85317291524458061
0.853172890879638879
0.853172864817584031
0.853172835763911785
0.853172801668988456
0.853172759242913248
0.853172703197645266
0.853172625075588442
0.853172511311076076
0.853172339678560876
0.85317207377137938
0.85317165420645158
0.853170985300542806
0.853169908586358661
0.853168161768780964
0.853165302162098071
0.85316060267397531
0.853153022717114906
0.853141492488297848
0.853133978344225552
0.853125572348537586
0.853112244251081564
0.853090616176942151
0.853056992248414359
0.85300584928785339
0.852929360505211953
0.852817024949388602
0.852656969439749113
0.852447184250962664
0.852192551065035442
0.851900833022409598
0.851574992026497446
0.85120874775595412
0.850822999186896189
0.850623479947817951
0.85037991797712742
0.849976636407237973
0.849307959747645391
0.848258435559041679
0.846664255768993512
0.844523364445537772
0.843665657379957579
0.843040880816480431
0.842444911484623082
0.841812526349807633
0.841033935250669828
0.83984578797984677
0.838128434737212324
0.835710882392656784
0.832968678953237784
0.830464061352807925
0.828237288121004833
0.826286570733645864
0.824583229649268779
0.823126549742603242
0.821877742307073444
0.82084463769381133
0.819883739045137561
0.819059998433903647
0.853173317417415533
0.85317328885773136
0.85317326324240006
0.853173236493888432
0.853173208275417205
0.853173180473519643
0.853173154048250004
0.85317312849115523
0.853173103121454002
0.853173077855908013
0.853173052898139495
0.85317302822797203
0.853173003504965721
0.853172978218686429
0.853172951723723871
0.853172923081325196
0.853172890834216435
0.853172852770009094
0.853172805623399921
0.853172744690891771
0.853172663652691066
0.853172553138442757
0.853172399420846772
0.853172183789256411
0.853171881719354652
0.853171446125320254
0.853170777354600451
0.853169639077627662
0.853168269197748019
0.853165719695405667
0.853162796004032664
0.853159297994255494
0.853155536167356066
0.853151296104300627
0.853145836090855036
0.853138810579411655
0.853129369430536078
0.853115411748231578
0.853096778903413289
0.853069763093134426
0.853030390066835342
0.85297390851965349
0.852893899017517998
0.852781853382167165
0.852626461609259145
0.852423113928574061
0.852199331161785256
0.85194383546004826
0.851611353946435168
0.851167103328974939
0.850561984944529503
0.849887358823385619
0.84927281795977283
0.848707689497521844