/*--------------------------------*- C++ -*----------------------------------*\
  =========                 |
  \\      /  F ield         | OpenFOAM: The Open Source CFD Toolbox
   \\    /   O peration     | Website:  https://openfoam.org
    \\  /    A nd           | Version:  8
     \\/     M anipulation  |
\*---------------------------------------------------------------------------*/
FoamFile
{
    version     2.0;
    format      ascii;
    class       volVectorField;
    location    "0.2";
    object      U;
}
// * * * * * * * * * * * * * * * * * * * * * * * * * * * * * * * * * * * * * //

dimensions      [0 1 -1 0 0 0 0];

internalField   nonuniform List<vector> 
1800
(
(0.956232488656387769 -1.11872002156052792e-11 0.000790077958001775922)
(0.950516123439503979 -1.12043965599921486e-11 0.00166771323898790339)
(0.925997981669285375 0 0.0020193287336779304)
(0.884955461502284657 0 0.00217932927540177672)
(0.845574135746236966 -1.12415749067861697e-11 0.00245932784578668275)
(0.812426979855544018 -1.12541555788574587e-11 0.00281806878485748626)
(0.781676589583483294 0 0.00313502887446157931)
(0.750527875403717237 0 0.00337394458080972001)
(0.719394346543634211 0 0.00356109156873248619)
(0.689664232154516221 0 0.00372075612212357035)
(0.661802495900418175 0 0.00385249319429191266)
(0.635460383467902568 0 0.00394625296686364549)
(0.610304417211013916 0 0.00399869592388746916)
(0.586358808889098304 -1.13407186774389019e-11 0.0040143778985089109)
(0.563820099086088655 -1.13488329362737664e-11 0.00401797159640378092)
(0.997862956214912389 3.35516857666452993e-11 0.0414015216582800244)
(1.00759787494642716 3.35554329433143e-11 0.0483983550077080465)
(1.0152413276428458 0 0.0459329840344582241)
(1.01327087283060835 0 0.0460815709016615255)
(1.00796477557976849 3.35549873469376948e-11 0.0468427995467478944)
(1.00375941144271597 5.593152441211624e-11 0.0461235152745583729)
(0.999678167683880403 2.2376968520552901e-11 0.0444102402088249748)
(0.993836083795768488 0 0.0425149714640903134)
(0.986243400681941496 0 0.0406568834754596348)
(0.977920277454542575 0 0.0387710814550782032)
(0.969416078021617333 0 0.0368351771299259903)
(0.960667125264870636 0 0.0348880021975237625)
(0.951543670416427845 0 0.0329520842503052622)
(0.942139932467539687 1.12120819040754307e-11 0.0310060179089928917)
(0.932677643004138024 1.12154847398461889e-11 0.0290059952254512962)
(0.999887388450410475 -2.237356047794108e-11 0.00371657193673308617)
(1.00966680439074019 -2.23720413537639045e-11 0.0041728778697958822)
(1.02143246350934236 0 0.00440949593752336735)
(1.02739760365621091 0 0.00725218730928776402)
(1.02984989877292366 -2.23551950217474243e-11 0.0105754082382920021)
(1.03309806325276932 -4.47018885277538929e-11 0.0127373388087766125)
(1.03731800820176301 -6.70446782708818963e-11 0.0140693242674263166)
(1.04075448957057204 0 0.0152418001903506153)
(1.04286956068070125 4.46893916157638788e-11 0.0163651041387964623)
(1.04428666294254091 0 0.0172668388338603901)
(1.0454721841729353 2.23431650021139396e-11 0.0178721936668437553)
(1.04636215624613005 2.23431835214712303e-11 0.0182279352415470955)
(1.04677390645638146 2.23436105770055623e-11 0.0183900089624486167)
(1.04670512856268294 2.23444194219837165e-11 0.0183698494673902035)
(1.04626849991922044 0 0.0181273493301421125)
(1.00000685779473786 -4.47599752875046074e-11 0.0179030711453879374)
(1.0054571037845661 -4.47610899696385148e-11 0.0289431280283314191)
(1.01331084262414151 0 0.0331196762930021579)
(1.01903788567213582 0 0.0349605011313652639)
(1.02309049743923564 -4.47274094645226283e-11 0.0364646543525077582)
(1.027950418200136 -4.47163515342390467e-11 0.0372165294667577626)
(1.0339527780261768 4.4707196294924685e-11 0.0370461019368074421)
(1.03981486253424737 0 0.0364142682511860577)
(1.04490502171213473 -4.46913862054887393e-11 0.0356615678610453304)
(1.04957322676687359 0 0.0348032644815953474)
(1.05420023799258855 -2.23388038488808148e-11 0.033796784387912164)
(1.05874249922227581 -6.70077077588386508e-11 0.0326773923224187857)
(1.06299832516988446 -6.69999273453068354e-11 0.0314999334026212427)
(1.06689547289252507 -2.23310148471376204e-11 0.0302765560984010057)
(1.07047258094141773 0 0.0289894098619083995)
(1.00003204213494357 5.33412367342853171e-19 0.00248051306726155977)
(1.00354122109483357 -2.25850877313324775e-19 0.00305011976639931641)
(1.01014531913768102 0 0.00261522495166235545)
(1.01630241337561977 -4.47498628314944548e-11 0.00335132261181951682)
(1.02093762485216089 -8.87419629404260062e-21 0.00534625510649277408)
(1.02557826720349987 4.4728389744007186e-11 0.00733854652311498844)
(1.03106950985373658 0 0.00871369928705935382)
(1.03679206822587733 0 0.00974993459718641146)
(1.04213306003235862 0 0.0107563548770236959)
(1.04719374448378133 0 0.0117074491403175735)
(1.05227686060112702 0 0.0124757451612374989)
(1.05740651493546323 4.46804462900919565e-11 0.0130350360101939827)
(1.06242286790760843 4.4673856991173921e-11 0.0134297819832839074)
(1.06723073456121975 0 0.0136900638689891919)
(1.07183666513592279 0 0.013822334591827478)
(0.999994951699453294 4.4772032266847536e-11 0.00861139915927662883)
(1.00273702961878786 4.47797558069775082e-11 0.0160853871202659184)
(1.00764463528620563 0 0.0210067939308709282)
(1.01245282185518182 4.476151606810331e-11 0.0238037899907313499)
(1.01652264864902087 4.47523157029887357e-11 0.0255197385931814173)
(1.02082262801648826 0 0.0264855016817615516)
(1.02595971500253702 0 0.0267192717783391633)
(1.03150004968923792 0 0.026471697896969397)
(1.03687446146150242 0 0.0260361938447438677)
(1.04203827311240382 0 0.0255011406581814974)
(1.04721234643166561 4.47023343561523399e-11 0.024837336049274579)
(1.05245697714170561 4.46949949884164447e-11 0.0240556549084860807)
(1.05765404610653468 4.46879673009456443e-11 0.0232154085807151737)
(1.0627023518714549 4.46812037539324421e-11 0.022362480698443394)
(1.06759262134747335 0 0.0215214612985002128)
(1.00002747344268528 8.95516295622080702e-11 0.00149145985883250283)
(1.00175550988762208 8.95727397115114676e-11 0.00181060293785477054)
(1.0057391879586719 0 0.00112442315849787004)
(1.01055949197985306 0 0.000728001951216983257)
(1.01507917745437926 8.952228380788312e-11 0.00122690000806674124)
(1.01951430009172639 8.9504717235737896e-11 0.00219277681850249409)
(1.02439748369367845 8.94878776200478938e-11 0.00307721142842134294)
(1.02963610704497377 8.94720733099413348e-11 0.00378452393920551819)
(1.0348347802506459 0 0.00445602062840099854)
(1.03987421828127258 -8.94414587392581297e-11 0.00513512908188850075)
(1.04489022187403147 -1.34139769805235463e-10 0.00574997304765919627)
(1.04995999993163891 -4.47060435176195226e-11 0.00625037177548905167)
(1.0550122184562154 -4.46990815144052933e-11 0.00664972164020730984)
(1.05995526625293857 -1.34076973989515733e-10 0.006975591435638126)
(1.06476904032203423 -8.93670935347372978e-11 0.00724054521502859923)
(0.999995654932058664 -1.79112686248591196e-10 0.00412432321628723904)
(1.00175572841230132 -1.79163463453804875e-10 0.00830798604058153103)
(1.00533090587606666 0 0.011878794614791844)
(1.00946067721222765 0 0.0144193688909554623)
(1.01339990360052679 -1.79079273772600965e-10 0.0160483244574172353)
(1.01742511978237582 -1.79048699505649637e-10 0.0169900900045397082)
(1.02197779647104769 -8.95090163722066641e-11 0.0173649005735167089)
(1.02698857811101063 -8.9494019785961097e-11 0.0173272472490774501)
(1.03209421987532712 0 0.0170721773469265335)
(1.03711220477614274 8.94641981365485074e-11 0.0167092791973289835)
(1.04210497388417389 8.94493754172697412e-11 0.0162502818105074755)
(1.0471445562929147 0 0.0156990025984677338)
(1.05218699262448534 0 0.0150937607867075562)
(1.0571460798432839 8.9406956201720095e-11 0.0144781455030337774)
(1.06198902209079038 8.93890264969123719e-11 0.01387940946821546)
(1.00002135876779663 8.95612561223275533e-11 0.000325008353868690538)
(1.00125264717862428 8.9591116016904724e-11 -4.26475264522296969e-05)
(1.0042653847931049 0 -0.00112062944528969416)
(1.00834625196951211 0 -0.00218573855520994963)
(1.01262004416001705 8.95537782532798991e-11 -0.00269356851421723381)
(1.01693148961854152 8.95393147910732999e-11 -0.00268821211311118073)
(1.02154743090684863 0 -0.00246687197496300902)
(1.02650916152998772 0 -0.00218496813771490873)
(1.03157116161869578 0 -0.00184109463206858035)
(1.03655314782859764 0 -0.00143121294659049833)
(1.04148208172343204 0 -0.00100083348392946791)
(1.04643255524340195 0 -0.000596683677342977692)
(1.05138591510121038 0 -0.000225261511331962568)
(1.05626797407943007 0 0.000122746141459817079)
(1.06104267334001334 0 0.000445008290426291461)
(1.00001418489854155 -8.9564614119121052e-11 0.00145294606193957835)
(1.00145026319226305 -8.95974904333455552e-11 0.00318904905645737763)
(1.00459764534467788 0 0.00509621542269621166)
(1.00853682002463896 -8.95779528215371821e-11 0.00677604972843128418)
(1.01247123341497236 -8.95663631723648278e-11 0.00795010233123265991)
(1.01644033217516672 0 0.00860751199574196109)
(1.02081189858767041 0 0.00887838785556445409)
(1.02562293892635248 0 0.00889130405470734894)
(1.03059797638286432 0 0.0087417890149981848)
(1.03553095994765409 0 0.00848419393966715236)
(1.04043428186613474 0 0.00815061163071600925)
(1.04537253811134145 0 0.00776402242057850148)
(1.05032199093804168 0 0.00735070444239260302)
(1.05521676968551037 0 0.00692764662980225546)
(1.06001384827532141 0 0.00651663909091764002)
(0.99999522213331915 8.95646423703086267e-11 -0.00145967946258196576)
(1.00142533189689309 8.95975492050055671e-11 -0.00319063168042881852)
(1.00458212571068284 0 -0.00509665428039237332)
(1.0085137958711079 8.95780218701432917e-11 -0.00677644067021566758)
(1.01244646291146756 1.79132855186668304e-10 -0.00794834771361333826)
(1.01641987380793619 8.95537435297360538e-11 -0.00860693155465964976)
(1.02078854557057741 0 -0.0088785448283091855)
(1.02559620983389643 0 -0.00889039731134506732)
(1.03057330002195635 0 -0.00873939670647424192)
(1.03551174369176602 -8.94978369565578052e-11 -0.00848232273954249195)
(1.04041109041766888 -8.94834013526587376e-11 -0.00815133730930692191)
(1.04534344513190391 0 -0.00776259057962654618)
(1.05029996456067032 0 -0.00734771194123154305)
(1.05519429142865362 0 -0.00692737043078009689)
(1.05998494660077802 0 -0.00651545269345616632)
(1.00002095484030407 0 -0.00032172293449313162)
(1.00125066832244869 0 4.046381809414637e-05)
(1.00426199985316567 0 0.00111800520127294605)
(1.00834147867700641 0 0.0021829517250789598)
(1.01261423163981523 -8.95537916008422976e-11 0.00268804655582495847)
(1.01692545466711182 -8.95393274691033029e-11 0.00268287843140259993)
(1.02154134931912588 0 0.00246132793944356431)
(1.02650285447247724 0 0.00217766267238321412)
(1.0315644843048577 0 0.00183156337661632821)
(1.03654608358928213 8.94804498257997168e-11 0.00142095451127584511)
(1.04147490284730915 1.78931736160442449e-10 0.000991581511824031567)
(1.04642501816779032 8.94515070575186981e-11 0.00058436537279057477)
(1.05137811449106611 8.94374294948330383e-11 0.000210336429309291174)
(1.05626004716165323 8.94236281676791653e-11 -0.000136635254472889804)
(1.06103406815946522 0 -0.000460881579855607494)
(0.999995653646553628 0 -0.00412299168982596317)
(1.00175796317350807 0 -0.00830733945935932874)
(1.00533363896206662 0 -0.0118788867112651006)
(1.00946252934371672 -1.79108138416854038e-10 -0.0144195785101607684)
(1.01340114202270404 -3.58158529785588838e-10 -0.0160486800154659402)
(1.01742580743193223 -1.79048689070401604e-10 -0.0169904456471879454)
(1.02197828955068371 0 -0.0173651914936225789)
(1.0269890153504917 0 -0.0173276340689429396)
(1.03209437870611653 0 -0.0170727167784458615)
(1.03711172430049303 0 -0.016709726890247377)
(1.04210396225619917 -8.94493754578575551e-11 -0.0162504163401223402)
(1.04714376322484948 -8.94348805914120572e-11 -0.0156992794339780931)
(1.05218579159424341 -8.94207573029459593e-11 -0.0150940704073615848)
(1.05714407735853944 -8.9406961433173951e-11 -0.0144780192533192111)
(1.06198712785389393 0 -0.0138791836270371494)
(1.00002747722195395 1.79103264108529926e-10 -0.00149078233895550858)
(1.00175643405265657 1.79145477288598058e-10 -0.00181001244800796314)
(1.00574076060851136 0 -0.00112434128890827106)
(1.01056082594880636 1.79078549346603695e-10 -0.000728175581416051873)
(1.01508005923837885 3.58089121128257047e-10 -0.00122710350525560797)
(1.01951491502016101 1.79009427686101259e-10 -0.00219293682745046181)
(1.02439809289585382 1.78975751128453622e-10 -0.00307737466236565008)
(1.02963668884601156 1.78944142291004574e-10 -0.00378472770762368653)
(1.03483517606115916 0 -0.00445624086856418432)
(1.03987428298195606 -1.78882914949798192e-10 -0.0051352465495568371)
(1.04489003357641641 -1.78853025534759202e-10 -0.00574991053910354957)
(1.0499597887873493 0 -0.00625025316337979482)
(1.05501176124429952 0 -0.00664948632350910625)
(1.05995442430281406 -1.78769305489837773e-10 -0.00697507170861625097)
(1.06476810341527672 -1.78734197386654564e-10 -0.00723985461998759034)
(0.99999495227722901 -1.7908812048172008e-10 -0.00861115554043170861)
(1.00273737109819816 -1.79119013755348885e-10 -0.0160851294561728947)
(1.0076453472737783 0 -0.0210067415213467425)
(1.01245352093612895 0 -0.0238038979293096441)
(1.01652309479078484 0 -0.0255198691227356937)
(1.0208228977981979 0 -0.0264855928136997452)
(1.02595998771064845 -1.78936370900934688e-10 -0.0267193638364254075)
(1.03150031402647624 -1.78903724633997726e-10 -0.0264718100536102049)
(1.03687460926356523 0 -0.026036293269018327)
(1.04203823275589658 1.7884009147064551e-10 -0.0255011561706846995)
(1.04721216458452404 1.78809338583451994e-10 -0.0248372301323682432)
(1.05245673097746018 0 -0.0240554549254770184)
(1.05765364680427343 0 -0.0232150770453816609)
(1.0627017362679696 1.78724822749542974e-10 -0.0223619489354175208)
(1.06759186421521424 1.78689982313644795e-10 -0.0215207671173682329)
(1.00003204298859139 -1.79069164376467724e-10 -0.00248036467354063482)
(1.00354138287567785 -1.79086049066193641e-10 -0.00304994359098848065)
(1.01014568798777016 0 -0.0026151650289708726)
(1.01630280770267101 0 -0.00335138373399552787)
(1.02093787653056656 -1.78955993537603216e-10 -0.00534634432353513905)
(1.0255783973931627 -1.78913557446547364e-10 -0.00733860833389957633)
(1.03106962429844806 0 -0.00871374861029656361)
(1.03679217470708296 0 -0.00974998078600968279)
(1.0421330940501361 0 -0.0107563657037856725)
(1.04719366714944129 0 -0.0117073725016811868)
(1.05227669726881334 0 -0.0124755451481233168)
(1.05740629861464064 0 -0.013034698415693248)
(1.06242256436538107 0 -0.0134292664507513222)
(1.06723031191658668 0 -0.0136893203879704852)
(1.07183612946429196 0 -0.0138213520428217378)
(1.00000685794192901 1.79039901567791246e-10 -0.0179030117796774579)
(1.00545717514149002 1.79044359996743848e-10 -0.028943050571545878)
(1.01331102049348054 0 -0.0331196449843347909)
(1.01903809249165844 0 -0.0349605310063842711)
(1.02309063526289701 1.78909636730743763e-10 -0.0364647052630070259)
(1.02795047916570947 1.78865405403646176e-10 -0.0372165654869403839)
(1.03395281678195183 0 -0.0370461234492077893)
(1.03981489281169259 0 -0.0364142765707235125)
(1.04490501249408396 0 -0.0356615396349571345)
(1.04957315783398308 -3.57473076895934262e-10 -0.0348031606823623052)
(1.05420012891019077 -3.57420865736671202e-10 -0.0337965735057569813)
(1.05874237750413225 0 -0.0326770506027558374)
(1.06299819309104748 0 -0.031499425499521734)
(1.06689533176443963 0 -0.0302758399194045097)
(1.07047244557382615 0 -0.0289884594719623488)
(0.999887388740025029 0 -0.00371653644766276482)
(1.00966684580224064 0 -0.00417283340038130269)
(1.02143256341453537 0 -0.00440947817523900266)
(1.02739772141716079 0 -0.00725220514354624896)
(1.0298499791129756 0 -0.0105754382393361233)
(1.03309809671517705 0 -0.0127373577496204572)
(1.03731802422910246 0 -0.0140693265782055009)
(1.04075450531517588 0 -0.0152417822390520097)
(1.04286957099777355 0 -0.0163650472043654696)
(1.04428667117939322 3.57498302493407518e-10 -0.0172667120001583768)
(1.04547222259836081 7.1498128268032612e-10 -0.0178719660119647135)
(1.04636227362137579 3.57490937374259047e-10 -0.0182275767958482333)
(1.04677415270677199 0 -0.0183894844137719761)
(1.04670556449148133 0 -0.0183691170969232549)
(1.04626920264022627 0 -0.0181263678135783722)
(0.997862956759262065 0 -0.0414015058687134535)
(1.00759789870177352 0 -0.0483983322285257631)
(1.01524138581104495 0 -0.0459329702082511629)
(1.01327094384908789 0 -0.0460815765160520752)
(1.00796482688933309 -1.78959935257888125e-10 -0.0468428154502960603)
(1.00375943375415355 -1.78980880146913147e-10 -0.0461235274824191854)
(0.999678180084571211 0 -0.0444102419830133821)
(0.993836106764251048 0 -0.0425149593150631472)
(0.986243447363535752 0 -0.0406568484522343565)
(0.977920371462942417 0 -0.0387710085433068952)
(0.96941626922038171 -3.58422263359936175e-10 -0.0368350512962728541)
(0.960667487771801776 -3.58540028849564663e-10 -0.0348878098653597479)
(0.95154429233148663 0 -0.0329518074870687877)
(0.942140926090106579 0 -0.0310056381630966944)
(0.932679151298344444 0 -0.029005490880145219)
(0.956232488776260769 -1.78995203447692719e-10 -0.000790077704474171629)
(0.950516140379187746 -1.79270344877343026e-10 -0.00166771272000455057)
(0.925998021859245402 0 -0.00201932813813902531)
(0.884955507886194148 -1.79669412758213713e-10 -0.00217932879554099583)
(0.845574168779302804 0 -0.00245932738921157256)
(0.812426991350174488 1.80066489181141737e-10 -0.0028180679714154039)
(0.781676592284990535 0 -0.00313502731672287609)
(0.750527886365749519 0 -0.00337394147370761489)
(0.719394378195371331 0 -0.00356108549830560627)
(0.689664303771118758 0 -0.00372074474585123473)
(0.661802645791482957 0 -0.00385247295559356783)
(0.635460669071699957 0 -0.00394621874507135578)
(0.610304908517038003 0 -0.00399863985309916424)
(0.586359585031917985 0 -0.0040142883156581979)
(0.56382125325888055 0 -0.00401782967178996708)
(0.546342760227656488 0 0.00397316610440808654)
(0.528374539883767591 -1.1307847469099727e-11 0.00388350742938712397)
(0.512270550865545848 -1.13152883716727591e-11 0.00382473356763360448)
(0.497880963988256986 5.09508781193867271e-10 0.00377145347761195619)
(0.484137258758224776 -1.20089803167370047e-09 0.00369502823112355123)
(0.470647646477732939 6.68808918102878984e-10 0.00359664658429885691)
(0.457691967153140811 0 0.00349138764960583645)
(0.445526056332909925 -3.40445166319335931e-10 0.00338679445353252864)
(0.434115654597991174 3.40629701134662205e-10 0.00328112585870854456)
(0.42331197478189253 6.81642212401237031e-10 0.00317158154867724657)
(0.413039302894567473 -1.02308492467658548e-09 0.00305818135184251615)
(0.403299598720806063 3.41259714822433988e-10 0.00294180079038356204)
(0.39409493762504727 0 0.00282197279838338269)
(0.38539514483533277 0 0.00269729168896847699)
(0.377156939929520096 0 0.00256747492214241596)
(0.369346100278264033 3.42622311595586273e-10 0.00243520308324858938)
(0.36194049170984699 -3.43100414773243812e-10 0.00230708466865603467)
(0.354922805542049247 0 0.00219408553900124871)
(0.348276017490100176 0 0.00211188600586646995)
(0.341983756220686053 0 0.00208159290179064146)
(0.336031599133613079 0 0.00213147601215565472)
(0.330407298248964199 -3.46199118646911512e-10 0.00230096420893152135)
(0.325101070752012222 3.46944716622702807e-10 0.00264947393246230166)
(0.320106297954070862 1.15907191171582046e-11 0.00327251814718325937)
(0.315415143340566473 -6.04576288265558739e-26 0.00432515836711097612)
(0.31100399681908264 -1.16434100637160056e-11 0.00606077361482438258)
(0.306809980279540706 1.40024025303276113e-09 0.00883369742493775312)
(0.302771352161404883 -1.41477590333252714e-09 0.0131080699729680013)
(0.299104885880471405 -1.17140368419759456e-11 0.0195773851195721743)
(0.296762992368165224 0 0.0166791426479205689)
(0.296848226379976987 7.04995178051093593e-10 0.00625843971825070736)
(0.298576006333615307 -1.41193359812912695e-09 -0.00513780146647972898)
(0.300054349840529699 -2.12058206406165141e-09 -0.00899929931391853927)
(0.299439866716354752 2.83035264957597095e-09 -0.000640493565322940162)
(0.296756306100704248 -7.08286492304801588e-10 0.00447311782485304218)
(0.294689420681591818 2.12665763855044663e-09 0.00846548589893201912)
(0.293577788720336574 -1.41876326147068971e-09 0.0130709232171378597)
(0.291758331151875994 0 0.0174454677367307798)
(0.289531509013695398 0 0.0119027030448271079)
(0.290128283513424623 0 0.00642314472766249839)
(0.292727699078712655 0 0.00417432762211085873)
(0.295833048783045116 0 -0.000704161795326668696)
(0.298793707091089766 0 -0.00615715788559972974)
(0.299656022818597434 1.4244786951520996e-09 -0.00179736943728732684)
(0.296893584266193333 -1.4252287623178185e-09 0.00585203211471376113)
(0.292913683249415857 0 0.00931356002755142839)
(0.290490796038129773 7.13332529636188137e-10 0.004137143344132602)
(0.291013872092717951 -7.13557289591895855e-10 -0.000257582179820438936)
(0.292772986680132241 0 -0.00089480756675135208)
(0.293919935884559169 0 -0.000714466086429319078)
(0.294506490784680497 0 -0.000472466221223232549)
(0.295007838153988955 0 -0.000628369655488182112)
(0.295698027011189968 0 -0.00130806391878185045)
(0.296971761880639729 0 -0.0058243723557520697)
(0.299157671305898043 -1.42928564389155758e-09 -0.0106300731053229642)
(0.29973325357043884 1.4295306836797308e-09 -0.00621378194827463572)
(0.296994515235630141 0 -0.0017484592461646394)
(0.294149416111462558 -1.43021104277304426e-09 -0.000412363057782015997)
(0.291904623957564169 1.43049400252356357e-09 8.50977218162919067e-05)
(0.290134789490351319 0 0.000371200585375258598)
(0.288787107493691797 -2.8618972320722604e-09 0.000684226469567667428)
(0.287676448227451087 2.86223231127615988e-09 0.00113440900486750187)
(0.28667936801320576 -1.4312585133562885e-09 0.00181673550723166497)
(0.285685683248840305 -1.43138379067164667e-09 0.00287244316552898301)
(0.284648446537838107 5.72598775138692019e-09 0.00452987351382103109)
(0.283547334224603653 -5.7264126923349866e-09 0.00689413679259691554)
(0.282458388406040761 2.85147169155501907e-09 0.00988466020958267584)
(0.281768371474527934 -1.19314648505906168e-11 0.013950011129401035)
(0.280795597799855579 2.86375317604961728e-09 0.0201183544716206954)
(0.278134325861042586 -5.02413636186000112e-09 0.015827628946095431)
(0.278082401831484138 2.13586869951061636e-09 0.0102934892442022065)
(0.281453532689416419 1.43164709448775879e-09 0.0024837173443020377)
(0.284972798524961546 -7.15794037429648404e-10 -0.00559721630235016521)
(0.286030521184582109 -7.15795831310052552e-10 -0.00226607172356419915)
(0.281058593490663366 0 0.00262139513432964886)
(0.925121506602047949 0 0.0275380759881715918)
(0.916668281330623946 1.11335447789507743e-11 0.0262814119656864242)
(0.908637533358481631 1.11373208227077469e-11 0.0250524185841397677)
(0.901153440791493177 6.68468705728722224e-10 0.0237921724814709849)
(0.893733763499399259 -1.30395902488201449e-09 0.0225459212851724482)
(0.886154666477096509 6.80071316978968378e-10 0.0213524081782746449)
(0.878550490568982934 -2.23048773009624871e-11 0.0202084882165202116)
(0.871088158498450671 -3.34684335016503083e-10 0.0191037709968766879)
(0.863793638103219408 1.00009082468351208e-17 0.0180411016879542252)
(0.856616015924648866 1.00471632036899138e-09 0.0170292938909119701)
(0.849528723767949634 -6.70033275525596166e-10 0.0160724314121882435)
(0.842546491921438268 0 0.0151697798421999153)
(0.835689863021039314 0 0.0143205320571283996)
(0.828963289664232161 0 0.0135245708638892983)
(0.822360753618664453 0 0.0127797417175065479)
(0.815877522829601132 3.3563837034749327e-10 0.0120799217845869774)
(0.809513346997489447 -3.35790371928313342e-10 0.011414959158361675)
(0.803269537922353893 0 0.0107711125867435576)
(0.797147155866920976 0 0.0101307844702813107)
(0.791148411633271431 0 0.00947124546227435388)
(0.785278949443096952 3.36551423429976022e-10 0.00876213165099409309)
(0.779548601109434247 -6.73571661358637987e-10 0.0079609761937550743)
(0.7739696126902742 1.01111774018494268e-09 0.00700633862526741941)
(0.768553215738948192 -6.85865854032646263e-10 0.00581104798669852644)
(0.76331221035415997 -6.52692628071086857e-10 0.0042623140632911307)
(0.758287858354013466 7.09599130140891463e-10 0.00221919019806923919)
(0.75363212351384834 1.35289021556535365e-09 -0.000583278705034990467)
(0.749668968735731744 -1.32028102343397921e-09 -0.00496188274930032831)
(0.746866998520890779 3.38814097570480423e-11 -0.013634543423951399)
(0.746093142688675437 2.26051567067714611e-11 -0.0164978471982097259)
(0.744592351979473044 2.26208601879201911e-11 -0.0106626998659900135)
(0.741052762688026223 -6.79163539877153661e-10 0.000630432465053898708)
(0.735952434169250935 -6.79827769002017666e-10 0.00896994545175962103)
(0.731634384522996006 1.36106490674954002e-09 0.00475223233530322909)
(0.730202964008126565 0 -0.000780944130488624893)
(0.728212114756831008 6.82123860070215172e-10 -0.00573869176561517085)
(0.725089841536576962 -1.36610469860869308e-09 -0.00855604898505188047)
(0.7249698469934025 6.83762842740035117e-10 -0.0113740354859822625)
(0.729776767682978944 0 -0.0123164622067073529)
(0.731395038152988786 0 -0.0107297704517269176)
(0.730185164187801106 0 -0.0113366090387446317)
(0.728129308051224999 0 -0.00719101499819518528)
(0.724150814495809869 0 0.00348111079908570769)
(0.718681285961064953 1.37942365380126188e-09 0.00574395312750568612)
(0.716569046738214532 -1.38131494651733717e-09 0.00176828152736883092)
(0.719165794419825755 6.91365738911022006e-10 -0.00271099745794615337)
(0.72398946943985798 -1.54868352677045301e-17 -0.00435351274941024602)
(0.725554626780387624 -6.92887722666657569e-10 -0.00255051993357285857)
(0.725112606532649751 0 -0.00122748855253427408)
(0.72521033600978857 0 -0.000480568923631360478)
(0.72568589743099865 1.39027014397168331e-09 -0.000392253082405912782)
(0.726144766471309433 -1.39130666865407217e-09 -0.000602761949335311477)
(0.726892722454420714 0 -0.00228724354760918369)
(0.726924273003596189 0 -8.48542303716295801e-05)
(0.724415390193612008 -1.39624165397927976e-09 0.00897466656774337061)
(0.720531115148679735 1.39786191103629394e-09 0.0101741591321374818)
(0.720268016558312407 0 0.00666187442419322821)
(0.72085644887057243 -1.40035229420454137e-09 0.00492720024788084396)
(0.720519572005580144 1.40130733338687788e-09 0.00359286358980839132)
(0.719989340318522242 0 0.00243605134854080413)
(0.719561508687982854 -2.80515465100645403e-09 0.00157780172140236426)
(0.718942421682913668 2.10475331538483232e-09 0.000839195405652442888)
(0.718165799323977394 -7.01925160710918746e-10 0.000110300987493415893)
(0.717068309175006968 1.40462252746694317e-09 -0.00083798816771826171)
(0.715646579692515772 2.81075432123091739e-09 -0.00224531069755168735)
(0.713961759595315493 -3.51509198915429269e-09 -0.00445996264026984803)
(0.711841720226304986 7.15015960678572831e-10 -0.00787416506378605698)
(0.708538300223930939 1.17254031622369112e-11 -0.0106962960533007242)
(0.70629729243414141 2.81467710378876509e-09 -0.0135663947881015136)
(0.710906887333687676 -2.80312141074838877e-09 -0.0152701599768939565)
(0.713118722800707205 1.1728700447763435e-11 -0.0171540820697787325)
(0.709653790131628992 7.03875094381267683e-10 -0.0106589747646990158)
(0.703885383823941391 -4.05408483020036283e-18 0.0029214366251200637)
(0.698119564742608834 -7.0414296832662955e-10 0.00672718752817202774)
(0.696580756378665678 0 0.00313212357877175589)
(1.04603746713318335 0 0.0180547611394487016)
(1.04489053929268172 0 0.0181818266372823709)
(1.04363523615888698 2.21496472820105268e-11 0.0182054446816208963)
(1.04255663258043496 3.54420495164291858e-10 0.0180379848003266938)
(1.041407785926173 -3.54449591154903042e-10 0.0177778854848021396)
(1.0399815624530675 0 0.0175051718693210873)
(1.03832314557011474 4.43141047915259073e-11 0.0172235938526276826)
(1.03655766749591693 -6.42616949080398973e-10 0.0169171335769305563)
(1.03472859582509003 3.32422030936470891e-10 0.0165886557389647617)
(1.03280943248523549 3.32457291259507265e-10 0.0162520750479222542)
(1.03077968169666367 0 0.0159157434005654033)
(1.02865183084230338 0 0.0155804970914503321)
(1.02644911389635918 0 0.0152455419982190348)
(1.02418438429233305 0 0.0149111553542988131)
(1.02186098767611244 0 0.0145777198031279351)
(1.01948254479905542 6.6539910887961784e-10 0.0142452224798199668)
(1.01705721283623785 -6.65494721330952713e-10 0.0139145784694571593)
(1.01459589439185205 -4.43731128443628382e-11 0.0135894050109625023)
(1.01211038285120503 -4.43804017674958332e-11 0.0132771499467498177)
(1.00961427424287331 0 0.0129899034970915022)
(1.00712530246271093 3.32975214358879456e-10 0.0127460646230930074)
(1.00466736393139278 -7.10492941589550756e-10 0.0125743966369623646)
(1.00227234543129939 9.77143514132346104e-10 0.0125220434016034866)
(0.999983301824197701 -6.44178491361024407e-10 0.0126660896153412972)
(0.997862287653422886 -6.8877631860631701e-10 0.0131223610602537923)
(0.99601258618210553 6.44506817024662956e-10 0.0140401688344512117)
(0.994621576073794644 1.00036698387894677e-09 0.0155817687235555707)
(0.993949228302510646 -1.02288142741067782e-09 0.0178320194472535061)
(0.993714237294994751 -6.97106170252585038e-19 0.0202933552440146409)
(0.990880437147285575 -3.87735447453533553e-19 0.0189372697818338334)
(0.985918302455984219 -2.22578501293889797e-11 0.0126411215927543577)
(0.981851063433715643 -6.67894776511372022e-10 0.00487248186265675908)
(0.981439166909400029 -6.68031083186823088e-10 0.0010870673325945714)
(0.983729026023946851 1.33637732134801111e-09 0.00328302159290640985)
(0.984772398280730155 -4.45581483349412139e-11 0.00769976050975556062)
(0.984277715578360746 6.68591166435044918e-10 0.0118582617013379948)
(0.983910008590037743 -1.96191074285135474e-09 0.0129390910963767918)
(0.984203970979498854 1.38286525833827106e-09 0.00959892887436579641)
(0.98284359242169228 0 0.00721849395632413304)
(0.980556535586284306 -4.6469959596181877e-25 0.00481809352107951273)