 vasp.5.3.5 31Mar14 (build Jan 31 2018 16:04:57) complex                        
  
 executed on             LinuxIFC date 2018.12.29  17:47:23
 running on    8 total cores
 distrk:  each k-point on    8 cores,    1 groups
 distr:  one band on NCORES_PER_BAND=   1 cores,    8 groups


--------------------------------------------------------------------------------------------------------


 INCAR:
 POTCAR:    PAW_PBE Co 02Aug2007                  
 POTCAR:    PAW_PBE C 08Apr2002                   
 POTCAR:    PAW_PBE O 08Apr2002                   
 POTCAR:    PAW_PBE H 15Jun2001                   

 ----------------------------------------------------------------------------- 
|                                                                             |
|           W    W    AA    RRRRR   N    N  II  N    N   GGGG   !!!           |
|           W    W   A  A   R    R  NN   N  II  NN   N  G    G  !!!           |
|           W    W  A    A  R    R  N N  N  II  N N  N  G       !!!           |
|           W WW W  AAAAAA  RRRRR   N  N N  II  N  N N  G  GGG   !            |
|           WW  WW  A    A  R   R   N   NN  II  N   NN  G    G                |
|           W    W  A    A  R    R  N    N  II  N    N   GGGG   !!!           |
|                                                                             |
|      For optimal performance we recommend to set                            |
|        NCORE= 4 - approx SQRT( number of cores)                             |
|      NCORE specifies how many cores store one orbital (NPAR=cpu/NCORE).     |
|      This setting can  greatly improve the performance of VASP for DFT.     |
|      The default, NPAR=number of cores might be grossly inefficient         |
|      on modern multi-core architectures or massively parallel machines.     |
|      Do your own testing !!!!                                               |
|      Unfortunately you need to use the default for GW and RPA calculations. |
|      (for HF NCORE is supported but not extensively tested yet)             |
|                                                                             |
 ----------------------------------------------------------------------------- 

 POTCAR:    PAW_PBE Co 02Aug2007                  
   VRHFIN =Co: d8 s1                                                            
   LEXCH  = PE                                                                  
   EATOM  =   813.3670 eV,   59.7808 Ry                                         
                                                                                
   TITEL  = PAW_PBE Co 02Aug2007                                                
   LULTRA =        F    use ultrasoft PP ?                                      
   IUNSCR =        1    unscreen: 0-lin 1-nonlin 2-no                           
   RPACOR =    2.000    partial core radius                                     
   POMASS =   58.933; ZVAL   =    9.000    mass and valenz                      
   RCORE  =    2.300    outmost cutoff radius                                   
   RWIGS  =    2.460; RWIGS  =    1.302    wigner-seitz radius (au A)           
   ENMAX  =  267.968; ENMIN  =  200.976 eV                                      
   RCLOC  =    1.203    cutoff for local pot                                    
   LCOR   =        T    correct aug charges                                     
   LPAW   =        T    paw PP                                                  
   EAUG   =  477.818                                                            
   DEXC   =    0.000                                                            
   RMAX   =    2.360    core radius for proj-oper                               
   RAUG   =    1.300    factor for augmentation sphere                          
   RDEP   =    2.393    radius for radial grids                                 
   RDEPT  =    1.864    core radius for aug-charge                              
                                                                                
   Atomic configuration                                                         
    9 entries                                                                   
     n  l   j            E        occ.                                          
     1  0  0.50     -7587.6674   2.0000                                         
     2  0  0.50      -893.6084   2.0000                                         
     2  1  1.50      -764.5805   6.0000                                         
     3  0  0.50       -97.5973   2.0000                                         
     3  1  1.50       -60.9648   6.0000                                         
     3  2  2.50        -4.2382   8.0000                                         
     4  0  0.50        -4.3746   1.0000                                         
     4  1  1.50        -4.0817   0.0000                                         
     4  3  2.50        -1.3606   0.0000                                         
   Description                                                                  
     l       E           TYP  RCUT    TYP  RCUT                                 
     2     -4.2382362     23  2.300                                             
     2     -5.5988188     23  2.300                                             
     0     -4.3745797     23  2.300                                             
     0      5.7660125     23  2.300                                             
     1     -2.7211652     23  2.300                                             
     1     16.9860234     23  2.300                                             
  local pseudopotential read in
  partial core-charges read in
  partial kinetic energy density read in
  atomic valenz-charges read in
  non local Contribution for L=           2  read in
    real space projection operators read in
  non local Contribution for L=           2  read in
    real space projection operators read in
  non local Contribution for L=           0  read in
    real space projection operators read in
  non local Contribution for L=           0  read in
    real space projection operators read in
  non local Contribution for L=           1  read in
    real space projection operators read in
  non local Contribution for L=           1  read in
    real space projection operators read in
    PAW grid and wavefunctions read in
 
   number of l-projection  operators is LMAX  =           6
   number of lm-projection operators is LMMAX =          18
 
 POTCAR:    PAW_PBE C 08Apr2002                   
   VRHFIN =C: s2p2                                                              
   LEXCH  = PE                                                                  
   EATOM  =   147.1560 eV,   10.8157 Ry                                         
                                                                                
   TITEL  = PAW_PBE C 08Apr2002                                                 
   LULTRA =        F    use ultrasoft PP ?                                      
   IUNSCR =        1    unscreen: 0-lin 1-nonlin 2-no                           
   RPACOR =    1.200    partial core radius                                     
   POMASS =   12.011; ZVAL   =    4.000    mass and valenz                      
   RCORE  =    1.500    outmost cutoff radius                                   
   RWIGS  =    1.630; RWIGS  =    0.863    wigner-seitz radius (au A)           
   ENMAX  =  400.000; ENMIN  =  300.000 eV                                      
   ICORE  =        2    local potential                                         
   LCOR   =        T    correct aug charges                                     
   LPAW   =        T    paw PP                                                  
   EAUG   =  644.873                                                            
   DEXC   =    0.000                                                            
   RMAX   =    1.529    core radius for proj-oper                               
   RAUG   =    1.300    factor for augmentation sphere                          
   RDEP   =    1.501    radius for radial grids                                 
   RDEPT  =    1.300    core radius for aug-charge                              
                                                                                
   Atomic configuration                                                         
    4 entries                                                                   
     n  l   j            E        occ.                                          
     1  0  0.50      -273.3789   2.0000                                         
     2  0  0.50       -13.7508   2.0000                                         
     2  1  0.50        -5.2854   2.0000                                         
     3  2  1.50        -5.4423   0.0000                                         
   Description                                                                  
     l       E           TYP  RCUT    TYP  RCUT                                 
     0    -13.7508458     23  1.200                                             
     0     -8.2022199     23  1.200                                             
     1     -5.2854383     23  1.500                                             
     1     34.0145650     23  1.500                                             
     2     -5.4423304      7  1.500                                             
  local pseudopotential read in
  partial core-charges read in
  partial kinetic energy density read in
  atomic valenz-charges read in
  non local Contribution for L=           0  read in
    real space projection operators read in
  non local Contribution for L=           0  read in
    real space projection operators read in
  non local Contribution for L=           1  read in
    real space projection operators read in
  non local Contribution for L=           1  read in
    real space projection operators read in
    PAW grid and wavefunctions read in
 
   number of l-projection  operators is LMAX  =           4
   number of lm-projection operators is LMMAX =           8
 
 POTCAR:    PAW_PBE O 08Apr2002                   
   VRHFIN =O: s2p4                                                              
   LEXCH  = PE                                                                  
   EATOM  =   432.3788 eV,   31.7789 Ry                                         
                                                                                
   TITEL  = PAW_PBE O 08Apr2002                                                 
   LULTRA =        F    use ultrasoft PP ?                                      
   IUNSCR =        1    unscreen: 0-lin 1-nonlin 2-no                           
   RPACOR =    1.200    partial core radius                                     
   POMASS =   16.000; ZVAL   =    6.000    mass and valenz                      
   RCORE  =    1.520    outmost cutoff radius                                   
   RWIGS  =    1.550; RWIGS  =    0.820    wigner-seitz radius (au A)           
   ENMAX  =  400.000; ENMIN  =  300.000 eV                                      
   ICORE  =        2    local potential                                         
   LCOR   =        T    correct aug charges                                     
   LPAW   =        T    paw PP                                                  
   EAUG   =  605.392                                                            
   DEXC   =    0.000                                                            
   RMAX   =    1.553    core radius for proj-oper                               
   RAUG   =    1.300    factor for augmentation sphere                          
   RDEP   =    1.550    radius for radial grids                                 
   RDEPT  =    1.329    core radius for aug-charge                              
                                                                                
   Atomic configuration                                                         
    4 entries                                                                   
     n  l   j            E        occ.                                          
     1  0  0.50      -514.6923   2.0000                                         
     2  0  0.50       -23.9615   2.0000                                         
     2  1  0.50        -9.0305   4.0000                                         
     3  2  1.50        -9.5241   0.0000                                         
   Description                                                                  
     l       E           TYP  RCUT    TYP  RCUT                                 
     0    -23.9615318     23  1.200                                             
     0     -9.5240782     23  1.200                                             
     1     -9.0304911     23  1.520                                             
     1      8.1634956     23  1.520                                             
     2     -9.5240782      7  1.500                                             
  local pseudopotential read in
  partial core-charges read in
  partial kinetic energy density read in
  kinetic energy density of atom read in
  atomic valenz-charges read in
  non local Contribution for L=           0  read in
    real space projection operators read in
  non local Contribution for L=           0  read in
    real space projection operators read in
  non local Contribution for L=           1  read in
    real space projection operators read in
  non local Contribution for L=           1  read in
    real space projection operators read in
    PAW grid and wavefunctions read in
 
   number of l-projection  operators is LMAX  =           4
   number of lm-projection operators is LMMAX =           8
 
 POTCAR:    PAW_PBE H 15Jun2001                   
   VRHFIN =H: ultrasoft test                                                    
   LEXCH  = PE                                                                  
   EATOM  =    12.4884 eV,    0.9179 Ry                                         
                                                                                
   TITEL  = PAW_PBE H 15Jun2001                                                 
   LULTRA =        F    use ultrasoft PP ?                                      
   IUNSCR =        0    unscreen: 0-lin 1-nonlin 2-no                           
   RPACOR =    0.000    partial core radius                                     
   POMASS =    1.000; ZVAL   =    1.000    mass and valenz                      
   RCORE  =    1.100    outmost cutoff radius                                   
   RWIGS  =    0.700; RWIGS  =    0.370    wigner-seitz radius (au A)           
   ENMAX  =  250.000; ENMIN  =  200.000 eV                                      
   RCLOC  =    0.701    cutoff for local pot                                    
   LCOR   =        T    correct aug charges                                     
   LPAW   =        T    paw PP                                                  
   EAUG   =  400.000                                                            
   RMAX   =    1.123    core radius for proj-oper                               
   RAUG   =    1.200    factor for augmentation sphere                          
   RDEP   =    1.112    radius for radial grids                                 
   RDEPT  =    0.926    core radius for aug-charge                              
                                                                                
   Atomic configuration                                                         
    2 entries                                                                   
     n  l   j            E        occ.                                          
     1  0  0.50        -6.4927   1.0000                                         
     2  1  0.50        -3.4015   0.0000                                         
   Description                                                                  
     l       E           TYP  RCUT    TYP  RCUT                                 
     0     -6.4927494     23  1.100                                             
     0      6.8029130     23  1.100                                             
     1     -4.0817478     23  1.100                                             
  local pseudopotential read in
  atomic valenz-charges read in
  non local Contribution for L=           0  read in
    real space projection operators read in
  non local Contribution for L=           0  read in
    real space projection operators read in
  non local Contribution for L=           1  read in
    real space projection operators read in
    PAW grid and wavefunctions read in
 
   number of l-projection  operators is LMAX  =           3
   number of lm-projection operators is LMMAX =           5
 
 Optimization of the real space projectors (new method)

 maximal supplied QI-value         = 16.25
 optimisation between [QCUT,QGAM] = [ 10.24, 20.48] = [ 29.35,117.42] Ry 
 Optimized for a Real-space Cutoff    1.34 Angstroem

   l    n(q)    QCUT    max X(q) W(low)/X(q) W(high)/X(q)  e(spline) 
   2      7    10.239    65.824    0.41E-03    0.10E-02    0.11E-06
   2      7    10.239    61.429    0.41E-03    0.10E-02    0.11E-06
   0      8    10.239    56.174    0.42E-03    0.17E-03    0.96E-07
   0      8    10.239    31.263    0.38E-03    0.16E-03    0.87E-07
   1      8    10.239    19.828    0.20E-03    0.56E-03    0.13E-06
   1      8    10.239    15.139    0.15E-03    0.46E-03    0.11E-06
 Optimization of the real space projectors (new method)

 maximal supplied QI-value         = 25.13
 optimisation between [QCUT,QGAM] = [ 10.05, 20.36] = [ 28.30,116.06] Ry 
 Optimized for a Real-space Cutoff    1.30 Angstroem

   l    n(q)    QCUT    max X(q) W(low)/X(q) W(high)/X(q)  e(spline) 
   0      8    10.053   115.676    0.49E-03    0.72E-03    0.18E-06
   0      8    10.053    87.132    0.49E-03    0.71E-03    0.18E-06
   1      7    10.053     4.429    0.32E-03    0.31E-03    0.18E-06
   1      7    10.053     2.733    0.23E-03    0.19E-03    0.20E-06
 Optimization of the real space projectors (new method)

 maximal supplied QI-value         = 24.76
 optimisation between [QCUT,QGAM] = [ 10.15, 20.30] = [ 28.85,115.39] Ry 
 Optimized for a Real-space Cutoff    1.38 Angstroem

   l    n(q)    QCUT    max X(q) W(low)/X(q) W(high)/X(q)  e(spline) 
   0      8    10.150    20.381    0.22E-03    0.32E-03    0.29E-06
   0      8    10.150    15.268    0.23E-03    0.35E-03    0.30E-06
   1      8    10.150     5.964    0.46E-03    0.53E-03    0.21E-06
   1      8    10.150     5.382    0.38E-03    0.45E-03    0.19E-06
 Optimization of the real space projectors (new method)

 maximal supplied QI-value         = 34.20
 optimisation between [QCUT,QGAM] = [  9.92, 20.18] = [ 27.55,114.04] Ry 
 Optimized for a Real-space Cutoff    1.26 Angstroem

   l    n(q)    QCUT    max X(q) W(low)/X(q) W(high)/X(q)  e(spline) 
   0      8     9.919    19.460    0.50E-03    0.23E-03    0.29E-06
   0      8     9.919    12.209    0.48E-03    0.23E-03    0.28E-06
   1      7     9.919     4.655    0.17E-03    0.75E-03    0.30E-06
  PAW_PBE Co 02Aug2007                  :
 energy of atom  1       EATOM= -813.3670
 kinetic energy error for atom=    0.0093 (will be added to EATOM!!)
  PAW_PBE C 08Apr2002                   :
 energy of atom  2       EATOM= -147.1560
 kinetic energy error for atom=    0.0288 (will be added to EATOM!!)
  PAW_PBE O 08Apr2002                   :
 energy of atom  3       EATOM= -432.3788
 kinetic energy error for atom=    0.1156 (will be added to EATOM!!)
  PAW_PBE H 15Jun2001                   :
 energy of atom  4       EATOM=  -12.4884
 kinetic energy error for atom=    0.0098 (will be added to EATOM!!)
 
 
 POSCAR: Co C O H                                
  positions in direct lattice
  velocities in cartesian coordinates
 exchange correlation table for  LEXCH =        8
   RHO(1)=    0.500       N(1)  =     2000
   RHO(2)=  100.500       N(2)  =     4000

 VTST: version 3.1, (03/28/14)

 CHAIN: initializing optimizer
 
 OPT: Using Conjugate-Gradient optimizer
 OPT: CG, Init
 OPT: CG, FDSTEP      0.005000
 OPT: CG, MAXMOVE      0.200000
 
 CHAIN: Read ICHAIN            2
 
 POSCAR: Co C O H                                
  positions in direct lattice
  velocities in cartesian coordinates
 CHAIN: Running the Dimer method

 Dimer: -----------------
 Dimer: Input Parameters
 Dimer:   Seed      0
 Dimer: RotMax      1
 Dimer:     dR      0.005000
 Dimer:  FNMax      1.000000
 Dimer:  FNMin      0.010000
 Dimer: -----------------
 


--------------------------------------------------------------------------------------------------------


 ion  position               nearest neighbor table
   1  0.500  0.500  0.000-  16 2.46  14 2.46   4 2.46   2 2.46  13 2.47   9 2.47  17 2.48
   2  0.667  0.750  0.000-   9 2.46  11 2.46   1 2.46   3 2.46  10 2.47  14 2.47  18 2.50
   3  0.500  0.000  0.000-  16 2.46  14 2.46   4 2.46   2 2.46  15 2.47  11 2.47  19 2.49
   4  0.667  0.250  0.000-   9 2.46  11 2.46   1 2.46   3 2.46  12 2.47  16 2.47  20 2.51
   5  0.000  0.500  0.000-  12 2.46  10 2.46   8 2.46   6 2.46   9 2.47  13 2.47  21 2.50
   6  0.167  0.750  0.000-  13 2.46  15 2.46   5 2.46   7 2.46  14 2.47  10 2.47  22 2.47
   7  0.000  0.000  0.000-  12 2.46  10 2.46   8 2.46   6 2.46  11 2.47  15 2.47  23 2.49
   8  0.167  0.250  0.000-  13 2.46  15 2.46   5 2.46   7 2.46  16 2.47  12 2.47  24 2.49
   9  0.750  0.500  0.056-  25 2.39   4 2.46   2 2.46  12 2.46  10 2.46  17 2.47   5 2.47   1 2.47
                            18 2.49  20 2.49  21 2.50
  10  0.917  0.750  0.056-  26 2.39  22 2.44   5 2.46   7 2.46   9 2.46  11 2.46   2 2.47   6 2.47
                            21 2.49  23 2.49  18 2.50
  11  0.750  0.000  0.056-  27 2.37   4 2.46   2 2.46  12 2.46  10 2.46   7 2.47   3 2.47  18 2.47
                            20 2.48  19 2.48  23 2.52
  12  0.917  0.250  0.056-  28 2.38   5 2.46   7 2.46   9 2.46  11 2.46   4 2.47   8 2.47  21 2.47
                            23 2.48  24 2.49  20 2.51
  13  0.250  0.500  0.056-  29 2.37   8 2.46   6 2.46  16 2.46  14 2.46   1 2.47   5 2.47  24 2.47
                            22 2.48  21 2.48  17 2.49
  14  0.417  0.750  0.056-  30 2.36   1 2.46   3 2.46  13 2.46  15 2.46  18 2.47  17 2.47   6 2.47
                             2 2.47  19 2.48  22 2.50
  15  0.250  0.000  0.056-  23 2.44  24 2.46   8 2.46   6 2.46  16 2.46  14 2.46  22 2.47   3 2.47
                             7 2.47  19 2.48  31 2.52
  16  0.417  0.250  0.056-  32 2.44  19 2.46   1 2.46   3 2.46  13 2.46  15 2.46   8 2.47   4 2.47
                            24 2.47  20 2.47  17 2.47
  17  0.501  0.500  0.112-  32 2.39  29 2.40  30 2.42  18 2.45  20 2.45  25 2.46   9 2.47  14 2.47
                            16 2.47   1 2.48  13 2.49
  18  0.664  0.751  0.113-  26 2.39  27 2.41  25 2.43  30 2.44  17 2.45  19 2.45  14 2.47  11 2.47
                             9 2.49   2 2.50  10 2.50
  19  0.500  0.002  0.112-  30 2.43  20 2.43  18 2.45  16 2.46  31 2.48  15 2.48  14 2.48  27 2.48
                            11 2.48   3 2.49  32 2.50
  20  0.664  0.249  0.113-  28 2.37  27 2.42  19 2.43  25 2.43  17 2.45  32 2.45  16 2.47  11 2.48
                             9 2.49  12 2.51   4 2.51
  21  0.001  0.499  0.113-  25 2.38  29 2.42  28 2.43  26 2.43  22 2.45  24 2.46  12 2.47  13 2.48
                            10 2.49   9 2.50   5 2.50
  22  0.163  0.751  0.111-  30 2.39  29 2.42  23 2.42  26 2.44  10 2.44  21 2.45  15 2.47  31 2.47
                             6 2.47  13 2.48  14 2.50
  23  0.006  0.001  0.112-  27 2.39  22 2.42  24 2.43  28 2.43  15 2.44  26 2.45  31 2.45  12 2.48
                             7 2.49  10 2.49  11 2.52
  24  0.168  0.249  0.112-  32 2.41  23 2.43  29 2.43  21 2.46  15 2.46  16 2.47  13 2.47  28 2.48
                             8 2.49  12 2.49  31 2.49
  25  0.756  0.500  0.163-  21 2.38   9 2.39  26 2.40  28 2.41  18 2.43  20 2.43  17 2.46
  26  0.911  0.750  0.163-  27 2.38  10 2.39  18 2.39  25 2.40  21 2.43  22 2.44  23 2.45
  27  0.759  0.999  0.162-  11 2.37  26 2.38  28 2.38  23 2.39  18 2.41  20 2.42  19 2.48
  28  0.909  0.249  0.163-  20 2.37  12 2.38  27 2.38  25 2.41  21 2.43  23 2.43  24 2.48
  29  0.253  0.502  0.162-  32 2.37  13 2.37  30 2.39  17 2.40  22 2.42  21 2.42  24 2.43
  30  0.410  0.750  0.162-  40 1.81  14 2.36  22 2.39  29 2.39  31 2.41  17 2.42  19 2.43  18 2.44

  31  0.251  0.997  0.169-  40 1.55  34 2.17  30 2.41  23 2.45  22 2.47  19 2.48  24 2.49  15 2.52
                            32 2.53
  32  0.413  0.260  0.165-  36 2.07  29 2.37  17 2.39  24 2.41  16 2.44  20 2.45  19 2.50  31 2.53

  33  0.166  0.126  0.281-  38 1.10  39 1.10  37 1.11  34 1.51
  34  0.316  0.043  0.262-  36 1.45  33 1.51  35 1.52  31 2.17
  35  0.376  0.923  0.309-  44 1.10  43 1.10  42 1.10  34 1.52
  36  0.433  0.172  0.253-  41 0.99  34 1.45  32 2.07
  37  0.179  0.171  0.328-  33 1.11
  38  0.069  0.036  0.280-  33 1.10
  39  0.136  0.232  0.252-  33 1.10
  40  0.332  0.891  0.218-  31 1.55  30 1.81
  41  0.535  0.118  0.247-  36 0.99
  42  0.394  0.990  0.352-  35 1.10
  43  0.487  0.864  0.295-  35 1.10
  44  0.290  0.823  0.317-  35 1.10
 
  LATTYP: Found a simple orthorhombic cell.
 ALAT       =     8.0199986100
 B/A-ratio  =     1.0673318421
 C/A-ratio  =     2.7718209293
  
  Lattice vectors:
  
 A1 = (   0.0000000000,  -8.0199986100,   0.0000000000)
 A2 = (  -8.5599998900,   0.0000000000,   0.0000000000)
 A3 = (   0.0000000000,   0.0000000000, -22.2300000000)


Analysis of symmetry for initial positions (statically):
=====================================================================
 Subroutine PRICEL returns:
 Original cell was already a primitive cell.
 

 Routine SETGRP: Setting up the symmetry group for a 
 simple orthorhombic supercell.


 Subroutine GETGRP returns: Found  1 space group operations
 (whereof  1 operations were pure point group operations)
 out of a pool of  8 trial point group operations.


The static configuration has the point symmetry C_1 .


Analysis of symmetry for dynamics (positions and initial velocities):
=====================================================================
 Subroutine PRICEL returns:
 Original cell was already a primitive cell.
 

 Routine SETGRP: Setting up the symmetry group for a 
 simple orthorhombic supercell.


 Subroutine GETGRP returns: Found  1 space group operations
 (whereof  1 operations were pure point group operations)
 out of a pool of  8 trial point group operations.


The dynamic configuration has the point symmetry C_1 .


Analysis of constrained symmetry for selective dynamics:
=====================================================================
 Subroutine PRICEL returns:
 Original cell was already a primitive cell.
 

 Routine SETGRP: Setting up the symmetry group for a 
 simple orthorhombic supercell.


 Subroutine GETGRP returns: Found  1 space group operations
 (whereof  1 operations were pure point group operations)
 out of a pool of  8 trial point group operations.


The constrained configuration has the point symmetry C_1 .


Analysis of magnetic symmetry:
=====================================================================
 Subroutine PRICEL returns:
 Original cell was already a primitive cell.
 

 Subroutine MAGSYM returns: Found  1 space group operations
 (whereof  1 operations were pure point group operations)
 out of a pool of  1 trial space group operations
 (whereof  1 operations were pure point group operations)
 and found also     1 'primitive' translations


The magnetic configuration has the point symmetry C_1 .
 
 
 KPOINTS:  Automatic mesh                         

Automatic generation of k-mesh.
Space group operators:
 irot       det(A)        alpha          n_x          n_y          n_z        tau_x        tau_y        tau_z
    1     1.000000     0.000000     1.000000     0.000000     0.000000     0.000000     0.000000     0.000000
 
 Subroutine IBZKPT returns following result:
 ===========================================
 
 Found      5 irreducible k-points:
 
 Following reciprocal coordinates:
            Coordinates               Weight
  0.000000  0.000000  0.000000      1.000000
  0.333333  0.000000  0.000000      2.000000
  0.000000  0.333333  0.000000      2.000000
  0.333333  0.333333  0.000000      2.000000
 -0.333333  0.333333  0.000000      2.000000
 
 Following cartesian coordinates:
            Coordinates               Weight
  0.000000  0.000000  0.000000      1.000000
  0.096184  0.000000  0.000000      2.000000
  0.000000  0.102660  0.000000      2.000000
  0.096184  0.102660  0.000000      2.000000
 -0.096184  0.102660  0.000000      2.000000
 


--------------------------------------------------------------------------------------------------------




 Dimension of arrays:
   k-points           NKPTS =      5   k-points in BZ     NKDIM =      5   number of bands    NBANDS=    216
   number of dos      NEDOS =    301   number of ions     NIONS =     44
   non local maximal  LDIM  =      6   non local SUM 2l+1 LMDIM =     18
   total plane-waves  NPLWV = 188160
   max r-space proj   IRMAX =   1408   max aug-charges    IRDMAX=   5061
   dimension x,y,z NGX =    42 NGY =   40 NGZ =  112
   dimension x,y,z NGXF=    84 NGYF=   80 NGZF=  224
   support grid    NGXF=    84 NGYF=   80 NGZF=  224
   ions per type =              32   3   1   8
 NGX,Y,Z   is equivalent  to a cutoff of   8.16,  8.29,  8.38 a.u.
 NGXF,Y,Z  is equivalent  to a cutoff of  16.31, 16.58, 16.75 a.u.


 I would recommend the setting:
   dimension x,y,z NGX =    42 NGY =   39 NGZ =  109
 SYSTEM =  unknown system                          
 POSCAR =  Co C O H                                

 Startparameter for this run:
   NWRITE =      2    write-flag & timer
   PREC   = normal    normal or accurate (medium, high low for compatibility)
   ISTART =      0    job   : 0-new  1-cont  2-samecut
   ICHARG =      2    charge: 1-file 2-atom 10-const
   ISPIN  =      2    spin polarized calculation?
   LNONCOLLINEAR =      F non collinear calculations
   LSORBIT =      F    spin-orbit coupling
   INIWAV =      1    electr: 0-lowe 1-rand  2-diag
   LASPH  =      F    aspherical Exc in radial PAW
   METAGGA=      F    non-selfconsistent MetaGGA calc.
   LSOL =      F    Solvation

 Electronic Relaxation 1
   ENCUT  =  400.0 eV  29.40 Ry    5.42 a.u.  13.96 13.08 36.25*2*pi/ulx,y,z
   ENINI  =  400.0     initial cutoff
   ENAUG  =  644.9 eV  augmentation charge cutoff
   NELM   =     60;   NELMIN=  2; NELMDL= -5     # of ELM steps 
   EDIFF  = 0.1E-05   stopping-criterion for ELM
   LREAL  =      T    real-space projection
   NLSPLINE    = F    spline interpolate recip. space projectors
   LCOMPAT=      F    compatible to vasp.4.4
   GGA_COMPAT  = T    GGA compatible to vasp.4.4-vasp.4.6
   LMAXPAW     = -100 max onsite density
   LMAXMIX     =    2 max onsite mixed and CHGCAR
   VOSKOWN=      0    Vosko Wilk Nusair interpolation
   ROPT   =   -0.00050  -0.00050  -0.00050  -0.00050
 Ionic relaxation
   EDIFFG = -.1E-01   stopping-criterion for IOM
   NSW    =    500    number of steps for IOM
   NBLOCK =      1;   KBLOCK =    500    inner block; outer block 
   IBRION =      3    ionic relax: 0-MD 1-quasi-New 2-CG
   NFREE  =      0    steps in history (QN), initial steepest desc. (CG)
   ISIF   =      2    stress and relaxation
   IWAVPR =     11    prediction:  0-non 1-charg 2-wave 3-comb
   ISYM   =      2    0-nonsym 1-usesym 2-fastsym
   LCORR  =      T    Harris-Foulkes like correction to forces

   POTIM  = 0.0000    time-step for ionic-motion
   TEIN   =    0.0    initial temperature
   TEBEG  =    0.0;   TEEND  =   0.0 temperature during run
   SMASS  =  -3.00    Nose mass-parameter (am)
   estimated Nose-frequenzy (Omega)   =  0.10E-29 period in steps =  0.00 mass=  -0.167E-26a.u.
   SCALEE = 1.0000    scale energy and forces
   NPACO  =    256;   APACO  = 16.0  distance and # of slots for P.C.
   PSTRESS=    0.0 pullay stress

  Mass of Ions in am
   POMASS =  58.93 12.01 16.00  1.00
  Ionic Valenz
   ZVAL   =   9.00  4.00  6.00  1.00
  Atomic Wigner-Seitz radii
   RWIGS  =  -1.00 -1.00 -1.00 -1.00
  virtual crystal weights 
   VCA    =   1.00  1.00  1.00  1.00
   NELECT =     314.0000    total number of electrons
   NUPDOWN=      -1.0000    fix difference up-down

 DOS related values:
   EMIN   =  10.00;   EMAX   =-10.00  energy-range for DOS
   EFERMI =   0.00
   ISMEAR =     2;   SIGMA  =   0.20  broadening in eV -4-tet -1-fermi 0-gaus

 Electronic relaxation 2 (details)
   IALGO  =     38    algorithm
   LDIAG  =      T    sub-space diagonalisation (order eigenvalues)
   LSUBROT=      F    optimize rotation matrix (better conditioning)
   TURBO    =      0    0=normal 1=particle mesh
   IRESTART =      0    0=no restart 2=restart with 2 vectors
   NREBOOT  =      0    no. of reboots
   NMIN     =      0    reboot dimension
   EREF     =   0.00    reference energy to select bands
   IMIX   =      4    mixing-type and parameters
     AMIX     =   0.40;   BMIX     =  1.00
     AMIX_MAG =   1.60;   BMIX_MAG =  1.00
     AMIN     =   0.10
     WC   =   100.;   INIMIX=   1;  MIXPRE=   1;  MAXMIX= -45

 Intra band minimization:
   WEIMIN = 0.0010     energy-eigenvalue tresh-hold
   EBREAK =  0.12E-08  absolut break condition
   DEPER  =   0.30     relativ break condition  

   TIME   =   0.40     timestep for ELM

  volume/ion in A,a.u.               =      34.68       234.06
  Fermi-wavevector in a.u.,A,eV,Ry     =   0.966471  1.826366 12.708745  0.934066
  Thomas-Fermi vector in A             =   2.096275
 
 Write flags
   LWAVE  =      F    write WAVECAR
   LCHARG =      F    write CHGCAR
   LVTOT  =      F    write LOCPOT, total local potential
   LVHAR  =      F    write LOCPOT, Hartree potential only
   LELF   =      F    write electronic localiz. function (ELF)
   LORBIT =      0    0 simple, 1 ext, 2 COOP (PROOUT)


 Dipole corrections
   LMONO  =      F    monopole corrections only (constant potential shift)
   LDIPOL =      F    correct potential (dipole corrections)
   IDIPOL =      3    1-x, 2-y, 3-z, 4-all directions 
   EPSILON=  1.0000000 bulk dielectric constant

 Exchange correlation treatment:
   GGA     =    PE    GGA type
   LEXCH   =     8    internal setting for exchange type
   VOSKOWN=      0    Vosko Wilk Nusair interpolation
   LHFCALC =     F    Hartree Fock is set to
   LHFONE  =     F    Hartree Fock one center treatment
   AEXX    =    0.0000 exact exchange contribution

 Linear response parameters
   LEPSILON=     F    determine dielectric tensor
   LRPA    =     F    only Hartree local field effects (RPA)
   LNABLA  =     F    use nabla operator in PAW spheres
   LVEL    =     F    velocity operator in full k-point grid
   LINTERFAST=   F  fast interpolation
   KINTER  =     0    interpolate to denser k-point grid
   CSHIFT  =0.1000    complex shift for real part using Kramers Kronig
   OMEGAMAX=  -1.0    maximum frequency
   DEG_THRESHOLD= 0.2000000E-02 threshold for treating states as degnerate
   RTIME   =    0.100 relaxation time in fs

 Orbital magnetization related:
   ORBITALMAG=     F  switch on orbital magnetization
   LCHIMAG   =     F  perturbation theory with respect to B field
   DQ        =  0.001000  dq finite difference perturbation B field



--------------------------------------------------------------------------------------------------------


 quickmin algorithm: (dynamic with friction)
   using selective dynamics as specified on POSCAR
 charge density and potential will be updated during run
 spin polarized calculation
 Variant of blocked Davidson
 Davidson routine will perform the subspace rotation
 perform sub-space diagonalisation
    after iterative eigenvector-optimisation
 modified Broyden-mixing scheme, WC =      100.0
 initial mixing is a Kerker type mixing with AMIX =  0.4000 and BMIX =      1.0000
 Hartree-type preconditioning will be used
 using additional bands           59
 real space projection scheme for non local part
 use partial core corrections
 calculate Harris-corrections to forces 
   (improved forces if not selfconsistent)
 use gradient corrections 
 use of overlap-Matrix (Vanderbilt PP)
 Methfessel and Paxton  Order N= 2 SIGMA  =   0.20


--------------------------------------------------------------------------------------------------------


  energy-cutoff  :      400.00
  volume of cell :     1526.12
      direct lattice vectors                 reciprocal lattice vectors
     8.559999890  0.000000000  0.000000000     0.116822431  0.000000000  0.000000000
     0.000000000  8.019998610  0.000000000     0.000000000  0.124688301  0.000000000
     0.000000000  0.000000000 22.230000000     0.000000000  0.000000000  0.044984256

  length of vectors
     8.559999890  8.019998610 22.230000000     0.116822431  0.124688301  0.044984256


 
 k-points in units of 2pi/SCALE and weight:  Automatic mesh                         
   0.00000000  0.00000000  0.00000000       0.111
   0.09618380  0.00000000  0.00000000       0.222
   0.00000000  0.10266003  0.00000000       0.222
   0.09618380  0.10266003  0.00000000       0.222
  -0.09618380  0.10266003  0.00000000       0.222
 
 k-points in reciprocal lattice and weights:  Automatic mesh                         
   0.00000000  0.00000000  0.00000000       0.111
   0.33333333  0.00000000  0.00000000       0.222
   0.00000000  0.33333333  0.00000000       0.222
   0.33333333  0.33333333  0.00000000       0.222
  -0.33333333  0.33333333  0.00000000       0.222
 
 position of ions in fractional coordinates (direct lattice) 
   0.49999899  0.49999954  0.00000000
   0.66670668  0.74999931  0.00000000
   0.49999899  0.00000000  0.00000000
   0.66670668  0.25000008  0.00000000
   0.00000000  0.49999954  0.00000000
   0.16670567  0.74999931  0.00000000
   0.00000000  0.00000000  0.00000000
   0.16670567  0.25000008  0.00000000
   0.74999993  0.49999954  0.05555556
   0.91670473  0.74999931  0.05555556
   0.74999993  0.00000000  0.05555556
   0.91670473  0.25000008  0.05555556
   0.25000007  0.49999954  0.05555556
   0.41670574  0.74999931  0.05555556
   0.25000007  0.00000000  0.05555556
   0.41670574  0.25000008  0.05555556
   0.50134433  0.50018696  0.11176455
   0.66429315  0.75134172  0.11254222
   0.49967706  0.00176325  0.11201012
   0.66426863  0.24883328  0.11282326
   0.00140566  0.49893468  0.11253967
   0.16291992  0.75053324  0.11130096
   0.00558795  0.00095189  0.11187736
   0.16772053  0.24912527  0.11183352
   0.75596811  0.50045931  0.16283216
   0.91126929  0.75011098  0.16306885
   0.75899645  0.99866320  0.16201850
   0.90922605  0.24907469  0.16268492
   0.25310422  0.50247910  0.16234591
   0.40956640  0.74987059  0.16165377
   0.25083622  0.99694306  0.16887544
   0.41254314  0.26041086  0.16528915
   0.16555287  0.12586081  0.28148968
   0.31579059  0.04272223  0.26161861
   0.37586287  0.92268874  0.30928788
   0.43257406  0.17211531  0.25265169
   0.17890872  0.17121795  0.32821730
   0.06859291  0.03628487  0.28004991
   0.13578314  0.23194517  0.25230738
   0.33220475  0.89078262  0.21780908
   0.53517213  0.11776847  0.24716941
   0.39385056  0.99023455  0.35193241
   0.48660273  0.86435403  0.29538761
   0.29014816  0.82269426  0.31655787
 
 position of ions in cartesian coordinates  (Angst):
   4.27999130  4.00999560  0.00000000
   5.70700910  6.01499340  0.00000000
   4.27999130  0.00000000  0.00000000
   5.70700910  2.00500027  0.00000000
   0.00000000  4.00999560  0.00000000
   1.42700051  6.01499340  0.00000000
   0.00000000  0.00000000  0.00000000
   1.42700051  2.00500027  0.00000000
   6.41999930  4.00999560  1.23500000
   7.84699240  6.01499340  1.23500000
   6.41999930  0.00000000  1.23500000
   7.84699240  2.00500027  1.23500000
   2.14000059  4.00999560  1.23500000
   3.56700110  6.01499340  1.23500000
   2.14000059  0.00000000  1.23500000
   3.56700110  2.00500027  1.23500000
   4.29150740  4.01149869  2.48452598
   5.68634927  6.02575959  2.50181346
   4.27723559  0.01414125  2.48998490
   5.68613939  1.99564259  2.50806096
   0.01203241  4.00145547  2.50175689
   1.39459449  6.01927554  2.47422027
   0.04783288  0.00763419  2.48703366
   1.43568769  1.99798431  2.48605923
   6.47108691  4.01368293  3.61975895
   7.80046505  6.01588898  3.62502048
   6.49700953  8.00927747  3.60167117
   7.78297486  1.99757866  3.61648571
   2.16657214  4.02988172  3.60894967
   3.50588830  6.01396110  3.59356338
   2.14715800  7.99548192  3.75410096
   3.53136923  2.08849472  3.67437780
   1.41713255  1.00940350  6.25751562
   2.70316739  0.34263226  5.81578165
   3.21738611  7.39996243  6.87546950
   3.70283388  1.38036458  5.61644714
   1.53145862  1.37316771  7.29627057
   0.58715526  0.29100459  6.22550946
   1.16230365  1.86019992  5.60879310
   2.84367259  7.14407540  4.84189588
   4.58107336  0.94450295  5.49457593
   3.37136078  7.94167970  7.82345748
   4.16531930  6.93211809  6.56646653
   2.48366826  6.59800680  7.03708144
 


--------------------------------------------------------------------------------------------------------


 k-point  1 :   0.0000 0.0000 0.0000  plane waves:   27673
 k-point  2 :   0.3333 0.0000 0.0000  plane waves:   27720
 k-point  3 :   0.0000 0.3333 0.0000  plane waves:   27710
 k-point  4 :   0.3333 0.3333 0.0000  plane waves:   27742
 k-point  5 :  -0.3333 0.3333 0.0000  plane waves:   27742

 maximum and minimum number of plane-waves per node :     27742    27673

 maximum number of plane-waves:     27742
 maximum index in each direction: 
   IXMAX=   14   IYMAX=   13   IZMAX=   36
   IXMIN=  -14   IYMIN=  -13   IZMIN=  -36

 WARNING: aliasing errors must be expected set NGX to  58 to avoid them
 WARNING: aliasing errors must be expected set NGY to  54 to avoid them
 WARNING: aliasing errors must be expected set NGZ to 146 to avoid them
 aliasing errors are usually negligible using standard VASP settings
 and one can safely disregard these warnings

 serial   3D FFT for wavefunctions
 parallel 3D FFT for charge:
    minimum data exchange during FFTs selected (reduces bandwidth)


 total amount of memory used by VASP on root node   203387. kBytes
========================================================================

   base      :      30000. kBytes
   nonlr-proj:       7829. kBytes
   fftplans  :       7367. kBytes
   grid      :      34170. kBytes
   one-center:       1368. kBytes
   wavefun   :     122653. kBytes
 
     INWAV:  cpu time    0.00: real time    0.00
 Broyden mixing: mesh for mixing (old mesh)
   NGX = 27   NGY = 27   NGZ = 73
  (NGX  = 84   NGY  = 80   NGZ  =224)
  gives a total of  53217 points

 initial charge density was supplied:
 charge density of overlapping atoms calculated
 number of electron     314.0000000 magnetization      52.1600000
 keeping initial charge density in first step


--------------------------------------------------------------------------------------------------------


 Maximum index for non-local projection operator         1318
 Maximum index for augmentation-charges          789 (set IRDMAX)


--------------------------------------------------------------------------------------------------------


 First call to EWALD:  gamma=   0.154
 Maximum number of real-space cells 4x 4x 2
 Maximum number of reciprocal cells 2x 2x 5

 FEWALD executed in parallel
    FEWALD:  cpu time    0.00: real time    0.00


----------------------------------------- Iteration    1(   1)  ---------------------------------------


    POTLOK:  cpu time    0.60: real time    0.60
    SETDIJ:  cpu time    0.06: real time    0.07
     EDDAV:  cpu time   30.62: real time   30.67
       DOS:  cpu time    0.00: real time    0.00
    --------------------------------------------
      LOOP:  cpu time   31.29: real time   31.35

 eigenvalue-minimisations  :  4320
 total energy-change (2. order) : 0.2201272E+04  (-0.1106008E+05)
 number of electron     314.0000000 magnetization      52.1600000
 augmentation part      314.0000000 magnetization      52.1600000

 Free energy of the ion-electron system (eV)
  ---------------------------------------------------
  alpha Z        PSCENC =       331.32296425
  Ewald energy   TEWEN  =    106485.38119630
  -Hartree energ DENC   =   -131785.28381976
  -exchange      EXHF   =         0.00000000
  -V(xc)+E(xc)   XCENC  =       617.86295241
  PAW double counting   =     23751.99093977   -25451.76055144
  entropy T*S    EENTRO =        -0.00064070
  eigenvalues    EBANDS =      1250.83789547
  atomic energy  EATOM  =     27000.92142019
  Solvation contrib.  Ediel  =         0.00000000
  ---------------------------------------------------
  free energy    TOTEN  =      2201.27235649 eV

  energy without entropy =     2201.27299718  energy(sigma->0) =     2201.27251666


--------------------------------------------------------------------------------------------------------




----------------------------------------- Iteration    1(   2)  ---------------------------------------


     EDDAV:  cpu time   30.91: real time   30.92
       DOS:  cpu time    0.00: real time    0.00
    --------------------------------------------
      LOOP:  cpu time   30.92: real time   30.92

 eigenvalue-minimisations  :  4400
 total energy-change (2. order) :-0.2249998E+04  (-0.2108180E+04)
 number of electron     314.0000000 magnetization      52.1600000
 augmentation part      314.0000000 magnetization      52.1600000

 Free energy of the ion-electron system (eV)
  ---------------------------------------------------
  alpha Z        PSCENC =       331.32296425
  Ewald energy   TEWEN  =    106485.38119630
  -Hartree energ DENC   =   -131785.28381976
  -exchange      EXHF   =         0.00000000
  -V(xc)+E(xc)   XCENC  =       617.86295241
  PAW double counting   =     23751.99093977   -25451.76055144
  entropy T*S    EENTRO =         0.00227098
  eigenvalues    EBANDS =      -999.16340641
  atomic energy  EATOM  =     27000.92142019
  Solvation contrib.  Ediel  =         0.00000000
  ---------------------------------------------------
  free energy    TOTEN  =       -48.72603372 eV

  energy without entropy =      -48.72830470  energy(sigma->0) =      -48.72660147


--------------------------------------------------------------------------------------------------------




----------------------------------------- Iteration    1(   3)  ---------------------------------------


     EDDAV:  cpu time   39.24: real time   39.25
       DOS:  cpu time    0.00: real time    0.00
    --------------------------------------------
      LOOP:  cpu time   39.24: real time   39.25

 eigenvalue-minimisations  :  5960
 total energy-change (2. order) :-0.2367993E+03  (-0.2181510E+03)
 number of electron     314.0000000 magnetization      52.1600000
 augmentation part      314.0000000 magnetization      52.1600000

 Free energy of the ion-electron system (eV)
  ---------------------------------------------------
  alpha Z        PSCENC =       331.32296425
  Ewald energy   TEWEN  =    106485.38119630
  -Hartree energ DENC   =   -131785.28381976
  -exchange      EXHF   =         0.00000000
  -V(xc)+E(xc)   XCENC  =       617.86295241
  PAW double counting   =     23751.99093977   -25451.76055144
  entropy T*S    EENTRO =        -0.03191779
  eigenvalues    EBANDS =     -1235.92852305
  atomic energy  EATOM  =     27000.92142019
  Solvation contrib.  Ediel  =         0.00000000
  ---------------------------------------------------
  free energy    TOTEN  =      -285.52533913 eV

  energy without entropy =     -285.49342134  energy(sigma->0) =     -285.51735968


--------------------------------------------------------------------------------------------------------




----------------------------------------- Iteration    1(   4)  ---------------------------------------


     EDDAV:  cpu time   35.76: real time   35.77
       DOS:  cpu time    0.00: real time    0.00
    --------------------------------------------
      LOOP:  cpu time   35.77: real time   35.77

 eigenvalue-minimisations  :  5336
 total energy-change (2. order) :-0.1645748E+02  (-0.1607036E+02)
 number of electron     314.0000000 magnetization      52.1600000
 augmentation part      314.0000000 magnetization      52.1600000

 Free energy of the ion-electron system (eV)
  ---------------------------------------------------
  alpha Z        PSCENC =       331.32296425
  Ewald energy   TEWEN  =    106485.38119630
  -Hartree energ DENC   =   -131785.28381976
  -exchange      EXHF   =         0.00000000
  -V(xc)+E(xc)   XCENC  =       617.86295241
  PAW double counting   =     23751.99093977   -25451.76055144
  entropy T*S    EENTRO =        -0.02413772
  eigenvalues    EBANDS =     -1252.39378445
  atomic energy  EATOM  =     27000.92142019
  Solvation contrib.  Ediel  =         0.00000000
  ---------------------------------------------------
  free energy    TOTEN  =      -301.98282046 eV

  energy without entropy =     -301.95868274  energy(sigma->0) =     -301.97678603


--------------------------------------------------------------------------------------------------------




----------------------------------------- Iteration    1(   5)  ---------------------------------------


     EDDAV:  cpu time   39.56: real time   39.57
       DOS:  cpu time    0.00: real time    0.00
    CHARGE:  cpu time    1.73: real time    1.73
    MIXING:  cpu time    0.01: real time    0.01
    --------------------------------------------
      LOOP:  cpu time   41.30: real time   41.31

 eigenvalue-minimisations  :  6040
 total energy-change (2. order) :-0.5676949E+00  (-0.5653665E+00)
 number of electron     314.0000714 magnetization      52.6145375
 augmentation part      150.4401336 magnetization      39.0046359

 Broyden mixing:
  rms(total) = 0.60580E+01    rms(broyden)= 0.60575E+01
  rms(prec ) = 0.63592E+01
  weight for this iteration     100.00

 Free energy of the ion-electron system (eV)
  ---------------------------------------------------
  alpha Z        PSCENC =       331.32296425
  Ewald energy   TEWEN  =    106485.38119630
  -Hartree energ DENC   =   -131785.28381976
  -exchange      EXHF   =         0.00000000
  -V(xc)+E(xc)   XCENC  =       617.86295241
  PAW double counting   =     23751.99093977   -25451.76055144
  entropy T*S    EENTRO =        -0.02523532
  eigenvalues    EBANDS =     -1252.96038173
  atomic energy  EATOM  =     27000.92142019
  Solvation contrib.  Ediel  =         0.00000000
  ---------------------------------------------------
  free energy    TOTEN  =      -302.55051533 eV

  energy without entropy =     -302.52528001  energy(sigma->0) =     -302.54420650


--------------------------------------------------------------------------------------------------------




----------------------------------------- Iteration    1(   6)  ---------------------------------------


    POTLOK:  cpu time    0.42: real time    0.42
    SETDIJ:  cpu time    0.05: real time    0.05
     EDDAV:  cpu time   33.82: real time   33.82
       DOS:  cpu time    0.00: real time    0.00
    CHARGE:  cpu time    1.80: real time    1.80
    MIXING:  cpu time    0.01: real time    0.01
    --------------------------------------------
      LOOP:  cpu time   36.10: real time   36.11

 eigenvalue-minimisations  :  5192
 total energy-change (2. order) :-0.5445376E+02  (-0.3327043E+02)
 number of electron     314.0000687 magnetization      52.0019170
 augmentation part      168.3485247 magnetization      47.5078701

 Broyden mixing:
  rms(total) = 0.12830E+02    rms(broyden)= 0.12830E+02
  rms(prec ) = 0.13779E+02
  weight for this iteration     100.00

 eigenvalues of (default mixing * dielectric matrix)
  average eigenvalue GAMMA=   0.2545
  0.2545

 Free energy of the ion-electron system (eV)
  ---------------------------------------------------
  alpha Z        PSCENC =       331.32296425
  Ewald energy   TEWEN  =    106485.38119630
  -Hartree energ DENC   =   -131482.19794739
  -exchange      EXHF   =         0.00000000
  -V(xc)+E(xc)   XCENC  =       603.71461122
  PAW double counting   =     26043.32501206   -27591.78093433
  entropy T*S    EENTRO =         0.03562261
  eigenvalues    EBANDS =     -1747.72621641
  atomic energy  EATOM  =     27000.92142019
  Solvation contrib.  Ediel  =         0.00000000
  ---------------------------------------------------
  free energy    TOTEN  =      -357.00427151 eV

  energy without entropy =     -357.03989411  energy(sigma->0) =     -357.01317716


--------------------------------------------------------------------------------------------------------




----------------------------------------- Iteration    1(   7)  ---------------------------------------


    POTLOK:  cpu time    0.43: real time    0.43
    SETDIJ:  cpu time    0.06: real time    0.05
     EDDAV:  cpu time   32.01: real time   32.02
       DOS:  cpu time    0.00: real time    0.00
    CHARGE:  cpu time    1.68: real time    1.68
    MIXING:  cpu time    0.01: real time    0.01
    --------------------------------------------
      LOOP:  cpu time   34.19: real time   34.19

 eigenvalue-minimisations  :  4848
 total energy-change (2. order) : 0.6119219E+02  (-0.2468253E+02)
 number of electron     314.0000872 magnetization      51.7122172
 augmentation part      174.0475373 magnetization      41.4936551

 Broyden mixing:
  rms(total) = 0.70812E+01    rms(broyden)= 0.70804E+01
  rms(prec ) = 0.76518E+01
  weight for this iteration     100.00

 eigenvalues of (default mixing * dielectric matrix)
  average eigenvalue GAMMA=   0.3759
  0.6016  0.1501

 Free energy of the ion-electron system (eV)
  ---------------------------------------------------
  alpha Z        PSCENC =       331.32296425
  Ewald energy   TEWEN  =    106485.38119630
  -Hartree energ DENC   =   -131408.71792183
  -exchange      EXHF   =         0.00000000
  -V(xc)+E(xc)   XCENC  =       598.75537748
  PAW double counting   =     26523.50005821   -28095.73872180
  entropy T*S    EENTRO =         0.02488609
  eigenvalues    EBANDS =     -1731.26134384
  atomic energy  EATOM  =     27000.92142019
  Solvation contrib.  Ediel  =         0.00000000
  ---------------------------------------------------
  free energy    TOTEN  =      -295.81208496 eV

  energy without entropy =     -295.83697105  energy(sigma->0) =     -295.81830648


--------------------------------------------------------------------------------------------------------




----------------------------------------- Iteration    1(   8)  ---------------------------------------


    POTLOK:  cpu time    0.42: real time    0.42
    SETDIJ:  cpu time    0.05: real time    0.05
     EDDAV:  cpu time   33.11: real time   33.11
       DOS:  cpu time    0.00: real time    0.00
    CHARGE:  cpu time    1.71: real time    1.71
    MIXING:  cpu time    0.01: real time    0.01
    --------------------------------------------
      LOOP:  cpu time   35.30: real time   35.31

 eigenvalue-minimisations  :  5056
 total energy-change (2. order) : 0.2217737E+02  (-0.7994615E+01)
 number of electron     314.0000770 magnetization      51.5923754
 augmentation part      168.0754503 magnetization      42.5030197

 Broyden mixing:
  rms(total) = 0.53916E+01    rms(broyden)= 0.53912E+01
  rms(prec ) = 0.59333E+01
  weight for this iteration     100.00

 eigenvalues of (default mixing * dielectric matrix)
  average eigenvalue GAMMA=   0.3951
  0.7780  0.2539  0.1534

 Free energy of the ion-electron system (eV)
  ---------------------------------------------------
  alpha Z        PSCENC =       331.32296425
  Ewald energy   TEWEN  =    106485.38119630
  -Hartree energ DENC   =   -131674.34739543
  -exchange      EXHF   =         0.00000000
  -V(xc)+E(xc)   XCENC  =       603.66057181
  PAW double counting   =     27683.39720396   -29331.22943862
  entropy T*S    EENTRO =         0.00358070
  eigenvalues    EBANDS =     -1372.74481757
  atomic energy  EATOM  =     27000.92142019
  Solvation contrib.  Ediel  =         0.00000000
  ---------------------------------------------------
  free energy    TOTEN  =      -273.63471442 eV

  energy without entropy =     -273.63829513  energy(sigma->0) =     -273.63560960


--------------------------------------------------------------------------------------------------------




----------------------------------------- Iteration    1(   9)  ---------------------------------------


    POTLOK:  cpu time    0.42: real time    0.42
    SETDIJ:  cpu time    0.05: real time    0.05
     EDDAV:  cpu time   36.15: real time   36.15
       DOS:  cpu time    0.00: real time    0.00
    CHARGE:  cpu time    1.72: real time    1.72
    MIXING:  cpu time    0.01: real time    0.01
    --------------------------------------------
      LOOP:  cpu time   38.36: real time   38.36

 eigenvalue-minimisations  :  5656
 total energy-change (2. order) :-0.2366330E+02  (-0.5534532E+01)
 number of electron     314.0000849 magnetization      51.1152388
 augmentation part      165.7214452 magnetization      45.6951554

 Broyden mixing:
  rms(total) = 0.89957E+01    rms(broyden)= 0.89952E+01
  rms(prec ) = 0.10693E+02
  weight for this iteration     100.00

 eigenvalues of (default mixing * dielectric matrix)
  average eigenvalue GAMMA=   0.3854
  0.6642  0.6098  0.1338  0.1338

 Free energy of the ion-electron system (eV)
  ---------------------------------------------------
  alpha Z        PSCENC =       331.32296425
  Ewald energy   TEWEN  =    106485.38119630
  -Hartree energ DENC   =   -131762.06727715
  -exchange      EXHF   =         0.00000000
  -V(xc)+E(xc)   XCENC  =       606.00519761
  PAW double counting   =     28199.39244443   -29874.07218712
  entropy T*S    EENTRO =         0.01911398
  eigenvalues    EBANDS =     -1284.20088723
  atomic energy  EATOM  =     27000.92142019
  Solvation contrib.  Ediel  =         0.00000000
  ---------------------------------------------------
  free energy    TOTEN  =      -297.29801474 eV

  energy without entropy =     -297.31712872  energy(sigma->0) =     -297.30279324


--------------------------------------------------------------------------------------------------------




----------------------------------------- Iteration    1(  10)  ---------------------------------------


    POTLOK:  cpu time    0.42: real time    0.42
    SETDIJ:  cpu time    0.05: real time    0.05
     EDDAV:  cpu time   34.44: real time   34.44
       DOS:  cpu time    0.00: real time    0.00
    CHARGE:  cpu time    1.73: real time    1.73
    MIXING:  cpu time    0.01: real time    0.01
    --------------------------------------------
      LOOP:  cpu time   36.65: real time   36.66

 eigenvalue-minimisations  :  5320
 total energy-change (2. order) : 0.1419552E+02  (-0.4623998E+01)
 number of electron     314.0000609 magnetization      50.8803941
 augmentation part      164.3875447 magnetization      42.9048702

 Broyden mixing:
  rms(total) = 0.63342E+01    rms(broyden)= 0.63337E+01
  rms(prec ) = 0.72974E+01
  weight for this iteration     100.00

 eigenvalues of (default mixing * dielectric matrix)
  average eigenvalue GAMMA=   0.3491
  0.6748  0.6748  0.1622  0.1622  0.0714

 Free energy of the ion-electron system (eV)
  ---------------------------------------------------
  alpha Z        PSCENC =       331.32296425
  Ewald energy   TEWEN  =    106485.38119630
  -Hartree energ DENC   =   -131787.19828065
  -exchange      EXHF   =         0.00000000
  -V(xc)+E(xc)   XCENC  =       604.99283479
  PAW double counting   =     28548.06575581   -30234.71290817
  entropy T*S    EENTRO =        -0.00105525
  eigenvalues    EBANDS =     -1231.87441727
  atomic energy  EATOM  =     27000.92142019
  Solvation contrib.  Ediel  =         0.00000000
  ---------------------------------------------------
  free energy    TOTEN  =      -283.10249000 eV

  energy without entropy =     -283.10143475  energy(sigma->0) =     -283.10222619


--------------------------------------------------------------------------------------------------------




----------------------------------------- Iteration    1(  11)  ---------------------------------------


    POTLOK:  cpu time    0.42: real time    0.42
    SETDIJ:  cpu time    0.06: real time    0.05
     EDDAV:  cpu time   33.57: real time   33.58
       DOS:  cpu time    0.00: real time    0.00
    CHARGE:  cpu time    1.57: real time    1.57
    MIXING:  cpu time    0.01: real time    0.01
    --------------------------------------------
      LOOP:  cpu time   35.63: real time   35.64

 eigenvalue-minimisations  :  5304
 total energy-change (2. order) : 0.1352513E+02  (-0.2361965E+01)
 number of electron     314.0000755 magnetization      50.7553675
 augmentation part      165.1581982 magnetization      40.9581291

 Broyden mixing:
  rms(total) = 0.37978E+01    rms(broyden)= 0.37975E+01
  rms(prec ) = 0.41990E+01
  weight for this iteration     100.00

 eigenvalues of (default mixing * dielectric matrix)
  average eigenvalue GAMMA=   0.3700
  0.9210  0.4745  0.4745  0.1593  0.0955  0.0955

 Free energy of the ion-electron system (eV)
  ---------------------------------------------------
  alpha Z        PSCENC =       331.32296425
  Ewald energy   TEWEN  =    106485.38119630
  -Hartree energ DENC   =   -131777.17628882
  -exchange      EXHF   =         0.00000000
  -V(xc)+E(xc)   XCENC  =       604.73986142
  PAW double counting   =     28671.29360307   -30359.09839368
  entropy T*S    EENTRO =         0.00967857
  eigenvalues    EBANDS =     -1226.97140182
  atomic energy  EATOM  =     27000.92142019
  Solvation contrib.  Ediel  =         0.00000000
  ---------------------------------------------------
  free energy    TOTEN  =      -269.57736053 eV

  energy without entropy =     -269.58703911  energy(sigma->0) =     -269.57978018


--------------------------------------------------------------------------------------------------------




----------------------------------------- Iteration    1(  12)  ---------------------------------------


    POTLOK:  cpu time    0.40: real time    0.40
    SETDIJ:  cpu time    0.05: real time    0.05
     EDDAV:  cpu time   30.69: real time   30.69
       DOS:  cpu time    0.00: real time    0.00
    CHARGE:  cpu time    1.65: real time    1.65
    MIXING:  cpu time    0.01: real time    0.01
    --------------------------------------------
      LOOP:  cpu time   32.81: real time   32.81

 eigenvalue-minimisations  :  4776
 total energy-change (2. order) : 0.1506708E+01  (-0.1325235E+01)
 number of electron     314.0000764 magnetization      50.6026116
 augmentation part      165.1570008 magnetization      41.1242900

 Broyden mixing:
  rms(total) = 0.36905E+01    rms(broyden)= 0.36903E+01
  rms(prec ) = 0.41062E+01
  weight for this iteration     100.00

 eigenvalues of (default mixing * dielectric matrix)
  average eigenvalue GAMMA=   0.4037
  1.2547  0.5472  0.5472  0.1488  0.1214  0.1214  0.0851

 Free energy of the ion-electron system (eV)
  ---------------------------------------------------
  alpha Z        PSCENC =       331.32296425
  Ewald energy   TEWEN  =    106485.38119630
  -Hartree energ DENC   =   -131783.52609800
  -exchange      EXHF   =         0.00000000
  -V(xc)+E(xc)   XCENC  =       605.42784321
  PAW double counting   =     28919.34523756   -30611.48322632
  entropy T*S    EENTRO =        -0.01238566
  eigenvalues    EBANDS =     -1215.44760421
  atomic energy  EATOM  =     27000.92142019
  Solvation contrib.  Ediel  =         0.00000000
  ---------------------------------------------------
  free energy    TOTEN  =      -268.07065269 eV

  energy without entropy =     -268.05826703  energy(sigma->0) =     -268.06755627


--------------------------------------------------------------------------------------------------------




----------------------------------------- Iteration    1(  13)  ---------------------------------------


    POTLOK:  cpu time    0.42: real time    0.42
    SETDIJ:  cpu time    0.06: real time    0.06
     EDDAV:  cpu time   30.31: real time   30.32
       DOS:  cpu time    0.00: real time    0.00
    CHARGE:  cpu time    1.67: real time    1.67
    MIXING:  cpu time    0.01: real time    0.01
    --------------------------------------------
      LOOP:  cpu time   32.48: real time   32.48

 eigenvalue-minimisations  :  4728
 total energy-change (2. order) : 0.3509363E+01  (-0.1222782E+01)
 number of electron     314.0000776 magnetization      50.6325690
 augmentation part      165.1669853 magnetization      40.9464383

 Broyden mixing:
  rms(total) = 0.20272E+01    rms(broyden)= 0.20268E+01
  rms(prec ) = 0.21725E+01
  weight for this iteration     100.00

 eigenvalues of (default mixing * dielectric matrix)
  average eigenvalue GAMMA=   0.3658
  1.2758  0.5253  0.5253  0.1480  0.1480  0.1326  0.0859  0.0859

 Free energy of the ion-electron system (eV)
  ---------------------------------------------------
  alpha Z        PSCENC =       331.32296425
  Ewald energy   TEWEN  =    106485.38119630
  -Hartree energ DENC   =   -131799.83912214
  -exchange      EXHF   =         0.00000000
  -V(xc)+E(xc)   XCENC  =       606.05358834
  PAW double counting   =     29248.18111110   -30946.28883572
  entropy T*S    EENTRO =        -0.05024698
  eigenvalues    EBANDS =     -1190.24336500
  atomic energy  EATOM  =     27000.92142019
  Solvation contrib.  Ediel  =         0.00000000
  ---------------------------------------------------
  free energy    TOTEN  =      -264.56128965 eV

  energy without entropy =     -264.51104267  energy(sigma->0) =     -264.54872791


--------------------------------------------------------------------------------------------------------




----------------------------------------- Iteration    1(  14)  ---------------------------------------


    POTLOK:  cpu time    0.43: real time    0.43
    SETDIJ:  cpu time    0.05: real time    0.05
     EDDAV:  cpu time   31.42: real time   31.42
       DOS:  cpu time    0.00: real time    0.00
    CHARGE:  cpu time    1.71: real time    1.71
    MIXING:  cpu time    0.01: real time    0.01
    --------------------------------------------
      LOOP:  cpu time   33.62: real time   33.63

 eigenvalue-minimisations  :  4936
 total energy-change (2. order) : 0.5121451E+00  (-0.3403821E+00)
 number of electron     314.0000773 magnetization      50.7176200
 augmentation part      165.0583259 magnetization      41.3379129

 Broyden mixing:
  rms(total) = 0.15479E+01    rms(broyden)= 0.15477E+01
  rms(prec ) = 0.16525E+01
  weight for this iteration     100.00

 eigenvalues of (default mixing * dielectric matrix)
  average eigenvalue GAMMA=   0.3545
  1.3280  0.5148  0.5148  0.2385  0.1586  0.1262  0.0846  0.1127  0.1127

 Free energy of the ion-electron system (eV)
  ---------------------------------------------------
  alpha Z        PSCENC =       331.32296425
  Ewald energy   TEWEN  =    106485.38119630
  -Hartree energ DENC   =   -131804.54092902
  -exchange      EXHF   =         0.00000000
  -V(xc)+E(xc)   XCENC  =       606.21668630
  PAW double counting   =     29306.80915474   -31005.51411211
  entropy T*S    EENTRO =        -0.05386652
  eigenvalues    EBANDS =     -1184.59165868
  atomic energy  EATOM  =     27000.92142019
  Solvation contrib.  Ediel  =         0.00000000
  ---------------------------------------------------
  free energy    TOTEN  =      -264.04914457 eV

  energy without entropy =     -263.99527804  energy(sigma->0) =     -264.03567794


--------------------------------------------------------------------------------------------------------




----------------------------------------- Iteration    1(  15)  ---------------------------------------


    POTLOK:  cpu time    0.43: real time    0.43
    SETDIJ:  cpu time    0.06: real time    0.06
     EDDAV:  cpu time   29.61: real time   29.62
       DOS:  cpu time    0.00: real time    0.00
    CHARGE:  cpu time    1.66: real time    1.66
    MIXING:  cpu time    0.02: real time    0.01
    --------------------------------------------
      LOOP:  cpu time   31.77: real time   31.77

 eigenvalue-minimisations  :  4584
 total energy-change (2. order) :-0.3024241E+00  (-0.1222090E+00)
 number of electron     314.0000771 magnetization      50.7550844
 augmentation part      164.9588864 magnetization      41.9161427

 Broyden mixing:
  rms(total) = 0.12354E+01    rms(broyden)= 0.12353E+01
  rms(prec ) = 0.12843E+01
  weight for this iteration     100.00

 eigenvalues of (default mixing * dielectric matrix)
  average eigenvalue GAMMA=   0.3292
  1.3309  0.4994  0.4994  0.1987  0.1987  0.1559  0.1233  0.1233  0.0833  0.0793

 Free energy of the ion-electron system (eV)
  ---------------------------------------------------
  alpha Z        PSCENC =       331.32296425
  Ewald energy   TEWEN  =    106485.38119630
  -Hartree energ DENC   =   -131814.68778848
  -exchange      EXHF   =         0.00000000
  -V(xc)+E(xc)   XCENC  =       606.46876329
  PAW double counting   =     29395.98831829   -31095.40214109
  entropy T*S    EENTRO =        -0.05041198
  eigenvalues    EBANDS =     -1174.29388945
  atomic energy  EATOM  =     27000.92142019
  Solvation contrib.  Ediel  =         0.00000000
  ---------------------------------------------------
  free energy    TOTEN  =      -264.35156869 eV

  energy without entropy =     -264.30115671  energy(sigma->0) =     -264.33896569


--------------------------------------------------------------------------------------------------------




----------------------------------------- Iteration    1(  16)  ---------------------------------------


    POTLOK:  cpu time    0.43: real time    0.43
    SETDIJ:  cpu time    0.05: real time    0.06
     EDDAV:  cpu time   30.10: real time   30.11
       DOS:  cpu time    0.00: real time    0.00
    CHARGE:  cpu time    1.64: real time    1.64
    MIXING:  cpu time    0.02: real time    0.01
    --------------------------------------------
      LOOP:  cpu time   32.25: real time   32.26

 eigenvalue-minimisations  :  4688
 total energy-change (2. order) :-0.1184007E+00  (-0.3108458E-01)
 number of electron     314.0000772 magnetization      50.7813861
 augmentation part      164.9419815 magnetization      42.1012839

 Broyden mixing:
  rms(total) = 0.11678E+01    rms(broyden)= 0.11678E+01
  rms(prec ) = 0.12035E+01
  weight for this iteration     100.00

 eigenvalues of (default mixing * dielectric matrix)
  average eigenvalue GAMMA=   0.3004
  1.3307  0.4971  0.4971  0.2002  0.2002  0.1560  0.1235  0.1235  0.0837  0.0764
  0.0157

 Free energy of the ion-electron system (eV)
  ---------------------------------------------------
  alpha Z        PSCENC =       331.32296425
  Ewald energy   TEWEN  =    106485.38119630
  -Hartree energ DENC   =   -131815.90365508
  -exchange      EXHF   =         0.00000000
  -V(xc)+E(xc)   XCENC  =       606.53652924
  PAW double counting   =     29408.37188734   -31107.69781616
  entropy T*S    EENTRO =        -0.04906214
  eigenvalues    EBANDS =     -1173.35343329
  atomic energy  EATOM  =     27000.92142019
  Solvation contrib.  Ediel  =         0.00000000
  ---------------------------------------------------
  free energy    TOTEN  =      -264.46996936 eV

  energy without entropy =     -264.42090722  energy(sigma->0) =     -264.45770382


--------------------------------------------------------------------------------------------------------




----------------------------------------- Iteration    1(  17)  ---------------------------------------


    POTLOK:  cpu time    0.43: real time    0.43
    SETDIJ:  cpu time    0.05: real time    0.05
     EDDAV:  cpu time   30.46: real time   30.47
       DOS:  cpu time    0.00: real time    0.00
    CHARGE:  cpu time    1.70: real time    1.70
    MIXING:  cpu time    0.02: real time    0.02
    --------------------------------------------
      LOOP:  cpu time   32.66: real time   32.67

 eigenvalue-minimisations  :  4728
 total energy-change (2. order) :-0.1065020E+00  (-0.8149313E-02)
 number of electron     314.0000773 magnetization      50.8104262
 augmentation part      164.9542062 magnetization      42.2234514

 Broyden mixing:
  rms(total) = 0.11577E+01    rms(broyden)= 0.11577E+01
  rms(prec ) = 0.11940E+01
  weight for this iteration     100.00

 eigenvalues of (default mixing * dielectric matrix)
  average eigenvalue GAMMA=   0.3271
  1.3394  0.4988  0.4988  0.3207  0.3207  0.2477  0.1600  0.1304  0.1156  0.1156
  0.0851  0.0928

 Free energy of the ion-electron system (eV)
  ---------------------------------------------------
  alpha Z        PSCENC =       331.32296425
  Ewald energy   TEWEN  =    106485.38119630
  -Hartree energ DENC   =   -131816.14443143
  -exchange      EXHF   =         0.00000000
  -V(xc)+E(xc)   XCENC  =       606.56359279
  PAW double counting   =     29411.34817112   -31110.56568928
  entropy T*S    EENTRO =        -0.04792381
  eigenvalues    EBANDS =     -1173.35577146
  atomic energy  EATOM  =     27000.92142019
  Solvation contrib.  Ediel  =         0.00000000
  ---------------------------------------------------
  free energy    TOTEN  =      -264.57647135 eV

  energy without entropy =     -264.52854754  energy(sigma->0) =     -264.56449039


--------------------------------------------------------------------------------------------------------




----------------------------------------- Iteration    1(  18)  ---------------------------------------


    POTLOK:  cpu time    0.44: real time    0.43
    SETDIJ:  cpu time    0.06: real time    0.06
     EDDAV:  cpu time   30.76: real time   30.76
       DOS:  cpu time    0.00: real time    0.00
    CHARGE:  cpu time    1.53: real time    1.53
    MIXING:  cpu time    0.02: real time    0.02
    --------------------------------------------
      LOOP:  cpu time   32.80: real time   32.80

 eigenvalue-minimisations  :  4784
 total energy-change (2. order) :-0.1191378E+00  (-0.4124680E-02)
 number of electron     314.0000773 magnetization      50.9214004
 augmentation part      164.9589149 magnetization      42.3933409

 Broyden mixing:
  rms(total) = 0.11526E+01    rms(broyden)= 0.11526E+01
  rms(prec ) = 0.11905E+01
  weight for this iteration     100.00

 eigenvalues of (default mixing * dielectric matrix)
  average eigenvalue GAMMA=   0.3777
  1.3748  0.6562  0.6562  0.5360  0.5360  0.3314  0.1605  0.1379  0.1179  0.1179
  0.0850  0.1001  0.1001

 Free energy of the ion-electron system (eV)
  ---------------------------------------------------
  alpha Z        PSCENC =       331.32296425
  Ewald energy   TEWEN  =    106485.38119630
  -Hartree energ DENC   =   -131817.13397059
  -exchange      EXHF   =         0.00000000
  -V(xc)+E(xc)   XCENC  =       606.60139584
  PAW double counting   =     29419.24660528   -31118.60508109
  entropy T*S    EENTRO =        -0.04602050
  eigenvalues    EBANDS =     -1172.38411883
  atomic energy  EATOM  =     27000.92142019
  Solvation contrib.  Ediel  =         0.00000000
  ---------------------------------------------------
  free energy    TOTEN  =      -264.69560915 eV

  energy without entropy =     -264.64958865  energy(sigma->0) =     -264.68410403


--------------------------------------------------------------------------------------------------------




----------------------------------------- Iteration    1(  19)  ---------------------------------------


    POTLOK:  cpu time    0.39: real time    0.39
    SETDIJ:  cpu time    0.05: real time    0.05
     EDDAV:  cpu time   31.60: real time   31.61
       DOS:  cpu time    0.00: real time    0.00
    CHARGE:  cpu time    1.70: real time    1.70
    MIXING:  cpu time    0.02: real time    0.02
    --------------------------------------------
      LOOP:  cpu time   33.76: real time   33.77

 eigenvalue-minimisations  :  4960
 total energy-change (2. order) :-0.3144081E+00  (-0.1719821E-01)
 number of electron     314.0000773 magnetization      51.2412688
 augmentation part      165.0659729 magnetization      42.8610199

 Broyden mixing:
  rms(total) = 0.10946E+01    rms(broyden)= 0.10946E+01
  rms(prec ) = 0.11395E+01
  weight for this iteration     100.00

 eigenvalues of (default mixing * dielectric matrix)
  average eigenvalue GAMMA=   0.4512
  1.4797  1.0566  1.0566  0.5835  0.5835  0.3813  0.3813  0.1577  0.1104  0.1104
  0.1177  0.1177  0.0849  0.0960

 Free energy of the ion-electron system (eV)
  ---------------------------------------------------
  alpha Z        PSCENC =       331.32296425
  Ewald energy   TEWEN  =    106485.38119630
  -Hartree energ DENC   =   -131819.58340694
  -exchange      EXHF   =         0.00000000
  -V(xc)+E(xc)   XCENC  =       606.68391885
  PAW double counting   =     29452.35558501   -31152.30360987
  entropy T*S    EENTRO =        -0.04377264
  eigenvalues    EBANDS =     -1169.74431240
  atomic energy  EATOM  =     27000.92142019
  Solvation contrib.  Ediel  =         0.00000000
  ---------------------------------------------------
  free energy    TOTEN  =      -265.01001725 eV

  energy without entropy =     -264.96624461  energy(sigma->0) =     -264.99907409


--------------------------------------------------------------------------------------------------------




----------------------------------------- Iteration    1(  20)  ---------------------------------------


    POTLOK:  cpu time    0.43: real time    0.43
    SETDIJ:  cpu time    0.06: real time    0.05
     EDDAV:  cpu time   33.09: real time   33.09
       DOS:  cpu time    0.00: real time    0.00
    CHARGE:  cpu time    1.70: real time    1.70
    MIXING:  cpu time    0.02: real time    0.02
    --------------------------------------------
      LOOP:  cpu time   35.29: real time   35.30

 eigenvalue-minimisations  :  5264
 total energy-change (2. order) :-0.1167716E+01  (-0.1079820E+00)
 number of electron     314.0000781 magnetization      51.7153089
 augmentation part      165.3547663 magnetization      43.7430017

 Broyden mixing:
  rms(total) = 0.16203E+01    rms(broyden)= 0.16202E+01
  rms(prec ) = 0.17265E+01
  weight for this iteration     100.00

 eigenvalues of (default mixing * dielectric matrix)
  average eigenvalue GAMMA=   0.4753
  1.7309  1.1716  1.1716  0.6375  0.6375  0.4314  0.4314  0.1585  0.1383  0.1144
  0.1144  0.0850  0.1057  0.1057  0.0954

 Free energy of the ion-electron system (eV)
  ---------------------------------------------------
  alpha Z        PSCENC =       331.32296425
  Ewald energy   TEWEN  =    106485.38119630
  -Hartree energ DENC   =   -131826.10188131
  -exchange      EXHF   =         0.00000000
  -V(xc)+E(xc)   XCENC  =       606.90350794
  PAW double counting   =     29506.24378918   -31206.16692410
  entropy T*S    EENTRO =        -0.02357190
  eigenvalues    EBANDS =     -1164.65823371
  atomic energy  EATOM  =     27000.92142019
  Solvation contrib.  Ediel  =         0.00000000
  ---------------------------------------------------
  free energy    TOTEN  =      -266.17773316 eV

  energy without entropy =     -266.15416126  energy(sigma->0) =     -266.17184018


--------------------------------------------------------------------------------------------------------




----------------------------------------- Iteration    1(  21)  ---------------------------------------


    POTLOK:  cpu time    0.42: real time    0.42
    SETDIJ:  cpu time    0.05: real time    0.05
     EDDAV:  cpu time   33.12: real time   33.12
       DOS:  cpu time    0.00: real time    0.00
    CHARGE:  cpu time    1.67: real time    1.67
    MIXING:  cpu time    0.02: real time    0.02
    --------------------------------------------
      LOOP:  cpu time   35.29: real time   35.30

[...]
     16     Co         -0.039         -0.041          0.927
     17     Co         -0.045         -0.040          0.933
     18     Co         -0.041         -0.037          0.940
     19     Co         -0.022         -0.019          0.942
     20     Co         -0.041         -0.036          0.942
     21     Co         -0.043         -0.037          0.941
     22     Co         -0.029         -0.029          0.923
     23     Co         -0.038         -0.033          0.931
     24     Co         -0.037         -0.029          0.934
     25     Co          0.025          0.022          1.060
     26     Co          0.023          0.022          1.065
     27     Co         -0.021         -0.002          1.076
     28     Co          0.025          0.028          1.058
     29     Co          0.043          0.040          1.047
     30     Co          0.042          0.040          1.049
     31     Co          0.069          0.060          0.972
     32     Co          0.075          0.073          0.989
     33     C          -0.145         -0.124          0.828
     34     C           0.066          0.051          0.654
     35     C          -0.150         -0.117          0.825
     36     O          -0.173         -0.124          0.984
     37     H           0.054          0.043          0.729
     38     H           0.058          0.039          0.838
     39     H           0.031          0.017          0.831
     40     H          -0.079         -0.063          0.701
     41     H           0.191          0.131          0.746
     42     H           0.053          0.043          0.724
     43     H           0.050          0.037          0.774
     44     H           0.073          0.052          0.746

  dDsC method for vdW energy calculation
  ---------------------------------------------------------------------------------------------

  Parameters of vdW forcefield:
            C6dDsC            XDM            ALPHAts        RELVOL
            (au)              (au)            (au)                
   ---------------------------------------------------------------
   Co        540.244         11.938         54.083          1.082
   Co        539.533         11.959         53.914          1.078
   Co        544.617         12.016         54.164          1.083
   Co        538.682         11.951         53.868          1.077
   Co        539.270         11.936         53.995          1.080
   Co        542.949         11.986         54.136          1.083
   Co        541.440         11.956         54.122          1.082
   Co        540.863         11.964         54.027          1.081
   Co        326.643          8.307         46.994          0.940
   Co        322.280          8.276         46.537          0.931
   Co        326.072          8.305         46.918          0.938
   Co        322.281          8.284         46.492          0.930
   Co        324.793          8.284         46.858          0.937
   Co        322.507          8.273         46.590          0.932
   Co        329.799          8.311         47.421          0.948
   Co        320.639          8.271         46.331          0.927
   Co        324.687          8.315         46.667          0.933
   Co        329.963          8.386         47.020          0.940
   Co        331.408          8.410         47.095          0.942
   Co        329.170          8.355         47.084          0.942
   Co        329.848          8.375         47.066          0.941
   Co        320.039          8.287         46.153          0.923
   Co        322.651          8.286         46.536          0.931
   Co        324.680          8.311         46.685          0.934
   Co        519.435         11.714         52.992          1.060
   Co        523.949         11.762         53.233          1.065
   Co        526.917         11.706         53.792          1.076
   Co        508.062         11.483         52.877          1.058
   Co        504.626         11.522         52.340          1.047
   Co        489.863         11.162         52.446          1.049
   Co        405.031          9.959         48.603          0.972
   Co        430.826         10.415         49.433          0.989
   C          46.010          5.536          9.932          0.828
   C          30.497          4.645          7.847          0.654
   C          45.665          5.511          9.902          0.825
   O          25.937          5.834          5.314          0.984
   H           4.844          1.764          3.282          0.729
   H           7.105          2.251          3.772          0.838
   H           7.426          2.373          3.739          0.831
   H           5.858          2.220          3.154          0.701
   H           6.242          2.224          3.355          0.746
   H           4.756          1.743          3.260          0.724
   H           6.338          2.176          3.481          0.774
   H           5.224          1.859          3.359          0.746

  IVDW =   4
  VDW_RADIUS =    50.000 A
  VDW_S6 aka ATT0 =    13.960
  VDW_SR aka BTT0 =     1.320
  LVDW_ONECELL = F F F

  Number of pair interactions contributing to vdW energy:  340511
  Edisp (eV):   -7.04041
    FORVDW:  cpu time   18.93: real time   18.93

  FORCE on cell =-STRESS in cart. coord.  units (eV):
  Direction    XX          YY          ZZ          XY          YZ          ZX
  --------------------------------------------------------------------------------------
  Alpha Z   331.32296   331.32296   331.32296
  Ewald  121572.00012122168.97032************   -39.57757  -182.09500    -5.10325
  Hartree127736.46916128143.28484************   -18.73195  -118.13111    -4.53825
  E(xc)   -1572.34584 -1572.23385 -1574.97346    -0.12142    -0.09769    -0.03300
  Local  ************************254853.36725    57.00607   295.88256     7.99293
  n-local  -238.00644  -231.20041  -256.02236     0.79220    -0.58563    -0.16096
  augment  4995.06444  4991.75665  4992.42144     1.14186     0.91298    -0.98922
  Kinetic  2792.30871  2797.93890  2837.99548    -0.57260     3.84479     2.83775
  Fock        0.00000     0.00000     0.00000     0.00000     0.00000     0.00000
  vdW        -8.90036    -8.83818    -4.56232     0.04827     0.05504     0.01652
  -------------------------------------------------------------------------------------
  Total     -24.94253   -23.47558    -7.78930    -0.01514    -0.21406     0.02252
  in kB     -26.18567   -24.64560    -8.17752    -0.01590    -0.22473     0.02365
  external pressure =      -19.67 kB  Pullay stress =        0.00 kB


 VOLUME and BASIS-vectors are now :
 -----------------------------------------------------------------------------
  energy-cutoff  :      400.00
  volume of cell :     1526.12
      direct lattice vectors                 reciprocal lattice vectors
     8.559999890  0.000000000  0.000000000     0.116822431  0.000000000  0.000000000
     0.000000000  8.019998610  0.000000000     0.000000000  0.124688301  0.000000000
     0.000000000  0.000000000 22.230000000     0.000000000  0.000000000  0.044984256

  length of vectors
     8.559999890  8.019998610 22.230000000     0.116822431  0.124688301  0.044984256


 FORCES acting on ions
    electron-ion (+dipol)            ewald-force                    non-local-force                 convergence-correction
 -----------------------------------------------------------------------------------------------
   0.428E+02 -.149E+01 0.198E+04   -.413E+02 0.147E+01 -.197E+04   -.125E+01 -.268E-02 -.422E+01   0.738E-02 0.692E-02 -.566E-02
   -.526E+02 0.261E+01 0.197E+04   0.512E+02 -.269E+01 -.197E+04   0.116E+01 0.648E-01 -.427E+01   0.103E-04 0.107E-02 0.563E-02
   0.429E+02 0.183E+01 0.198E+04   -.416E+02 -.176E+01 -.198E+04   -.111E+01 -.497E-01 -.410E+01   0.732E-02 -.692E-02 -.214E-02
   -.530E+02 -.273E+01 0.198E+04   0.516E+02 0.280E+01 -.197E+04   0.124E+01 -.403E-01 -.430E+01   0.165E-01 -.108E-02 0.326E-03
   0.533E+02 -.844E+00 0.197E+04   -.518E+02 0.841E+00 -.197E+04   -.121E+01 0.125E-01 -.427E+01   -.861E-02 -.795E-02 0.921E-02
   -.446E+02 0.323E+01 0.198E+04   0.432E+02 -.321E+01 -.198E+04   0.123E+01 0.562E-02 -.409E+01   -.923E-03 -.311E-02 -.581E-02
   0.544E+02 0.825E+00 0.198E+04   -.529E+02 -.871E+00 -.198E+04   -.119E+01 0.175E-01 -.413E+01   -.872E-02 0.785E-02 0.801E-03
   -.433E+02 -.328E+01 0.198E+04   0.419E+02 0.326E+01 -.198E+04   0.114E+01 -.144E-01 -.415E+01   -.173E-01 0.322E-02 0.292E-02
   -.123E+02 -.383E+01 0.858E+03   0.124E+02 0.384E+01 -.859E+03   -.271E+00 0.903E-02 0.840E+00   0.164E-01 -.373E-02 -.238E-02
   0.187E+02 0.747E+01 0.861E+03   -.190E+02 -.746E+01 -.863E+03   0.270E+00 0.232E-01 0.843E+00   -.893E-02 -.815E-02 -.520E-02
   -.130E+02 0.384E+01 0.872E+03   0.133E+02 -.384E+01 -.873E+03   -.292E+00 -.158E-01 0.885E+00   0.192E-02 0.361E-02 -.487E-02
   0.143E+02 -.758E+01 0.868E+03   -.146E+02 0.758E+01 -.869E+03   0.264E+00 -.130E-01 0.871E+00   0.140E-03 0.829E-02 -.282E-02
   -.226E+00 -.364E+01 0.879E+03   0.464E+00 0.362E+01 -.880E+03   -.268E+00 -.639E-03 0.805E+00   -.141E-01 0.109E-02 -.602E-02
   -.573E+00 0.578E+01 0.883E+03   0.300E+00 -.573E+01 -.885E+03   0.331E+00 -.285E-01 0.645E+00   0.883E-02 0.572E-02 -.689E-02
   -.681E+01 0.351E+01 0.884E+03   0.705E+01 -.344E+01 -.885E+03   -.241E+00 -.171E-01 0.121E+00   0.592E-03 -.102E-02 -.657E-02
   -.249E+00 -.561E+01 0.888E+03   -.468E-01 0.557E+01 -.889E+03   0.316E+00 0.339E-01 0.296E+00   0.162E-04 -.579E-02 -.105E-01
   -.472E+02 -.188E+02 -.513E+03   0.475E+02 0.189E+02 0.514E+03   -.310E+00 -.335E-01 -.948E+00   0.116E-01 0.150E-01 -.568E-02
   -.310E+01 0.194E+02 -.547E+03   0.262E+01 -.195E+02 0.548E+03   0.473E+00 0.894E-01 -.887E+00   0.188E-02 0.178E-02 -.651E-02
   -.472E+02 0.129E+02 -.467E+03   0.475E+02 -.128E+02 0.467E+03   -.288E+00 -.793E-01 -.333E+00   0.927E-02 -.147E-01 -.633E-02
   -.110E+02 -.193E+02 -.524E+03   0.105E+02 0.194E+02 0.525E+03   0.490E+00 -.489E-01 -.771E+00   0.230E-01 -.196E-02 -.110E-01
   0.175E+01 -.761E+01 -.552E+03   -.138E+01 0.762E+01 0.553E+03   -.357E+00 0.514E-02 -.902E+00   -.112E-01 -.143E-01 -.101E-01
   0.399E+02 0.229E+02 -.493E+03   -.403E+02 -.226E+02 0.494E+03   0.372E+00 -.316E+00 -.634E+00   -.164E-02 -.684E-02 -.546E-02
   0.178E+02 0.898E+01 -.500E+03   -.171E+02 -.893E+01 0.501E+03   -.751E+00 -.738E-01 -.968E+00   -.950E-02 0.147E-01 -.865E-02
   0.497E+02 -.224E+02 -.477E+03   -.498E+02 0.220E+02 0.477E+03   0.177E+00 0.440E+00 -.892E+00   -.230E-01 0.640E-02 -.678E-02
   0.372E+02 -.205E+02 -.167E+04   -.361E+02 0.204E+02 0.167E+04   -.112E+01 0.517E-01 0.381E+01   0.110E-01 0.304E-02 -.564E-02
   -.295E+02 0.326E+02 -.167E+04   0.284E+02 -.326E+02 0.166E+04   0.113E+01 -.312E-01 0.385E+01   -.910E-02 -.861E-02 -.187E-02
   0.228E+02 0.228E+02 -.162E+04   -.218E+02 -.228E+02 0.161E+04   -.924E+00 -.640E-01 0.300E+01   -.203E-02 -.291E-02 -.564E-02
   -.236E+02 -.358E+02 -.163E+04   0.223E+02 0.359E+02 0.163E+04   0.126E+01 -.537E-01 0.382E+01   0.403E-02 0.850E-02 -.144E-01
   0.830E+02 -.380E+02 -.162E+04   -.820E+02 0.380E+02 0.161E+04   -.104E+01 -.773E-01 0.394E+01   -.143E-01 -.481E-03 -.274E-03
   -.958E+02 0.847E+02 -.155E+04   0.950E+02 -.850E+02 0.155E+04   0.833E+00 0.240E+00 0.296E+01   0.911E-02 0.538E-02 -.253E-02
   0.133E+03 0.391E+02 -.146E+04   -.133E+03 -.392E+02 0.145E+04   -.331E+00 0.614E-01 0.391E+01   -.308E-03 0.893E-03 0.116E-02
   -.812E+02 -.101E+03 -.146E+04   0.803E+02 0.102E+03 0.146E+04   0.894E+00 -.494E+00 0.432E+01   -.460E-02 -.539E-02 0.413E-02
   0.140E+03 -.531E+02 -.935E+03   -.141E+03 0.542E+02 0.935E+03   0.105E+01 -.115E+01 -.943E-01   -.134E-02 0.139E-03 0.113E-02
   0.436E+02 0.666E+02 -.903E+03   -.488E+02 -.716E+02 0.903E+03   0.527E+01 0.499E+01 0.127E-02   -.313E-03 -.112E-02 0.273E-02
   -.437E+02 0.107E+03 -.937E+03   0.439E+02 -.107E+03 0.938E+03   -.239E+00 0.166E+00 -.381E+00   0.242E-03 -.797E-03 0.454E-03
   -.161E+03 -.173E+03 -.143E+04   0.152E+03 0.210E+03 0.143E+04   0.916E+01 -.373E+02 -.832E+01   0.153E-02 -.201E-02 0.727E-02
   0.155E+02 -.294E+02 -.261E+03   -.150E+02 0.312E+02 0.266E+03   -.501E+00 -.181E+01 -.501E+01   -.885E-04 -.487E-04 -.208E-03
   0.612E+02 0.318E+02 -.228E+03   -.655E+02 -.354E+02 0.228E+03   0.427E+01 0.359E+01 0.196E+00   -.173E-03 0.223E-04 0.152E-03
   0.344E+02 -.524E+02 -.209E+03   -.357E+02 0.567E+02 0.205E+03   0.130E+01 -.430E+01 0.327E+01   -.499E-03 0.162E-03 0.204E-03
   -.730E+01 0.419E+02 -.236E+03   0.780E+01 -.429E+02 0.237E+03   -.509E+00 0.103E+01 -.110E+01   0.385E-03 -.359E-03 0.495E-03
   -.100E+03 0.248E+02 -.224E+03   0.107E+03 -.280E+02 0.223E+03   -.715E+01 0.328E+01 0.100E+01   0.545E-03 -.498E-03 0.679E-03
   -.160E+02 -.132E+02 -.252E+03   0.168E+02 0.158E+02 0.257E+03   -.782E+00 -.264E+01 -.471E+01   -.441E-04 -.129E-03 -.345E-03
   -.582E+02 0.404E+02 -.215E+03   0.629E+02 -.428E+02 0.214E+03   -.472E+01 0.242E+01 0.148E+01   0.507E-04 -.718E-04 -.123E-04
   0.341E+02 0.568E+02 -.228E+03   -.378E+02 -.609E+02 0.229E+03   0.367E+01 0.409E+01 -.843E+00   0.628E-04 0.110E-04 -.945E-04
 -----------------------------------------------------------------------------------------------
   -.114E+02 0.280E+02 0.200E+02   0.568E-13 0.206E-12 -.608E-11   0.114E+02 -.280E+02 -.195E+02   -.481E-02 -.419E-02 -.113E+00
 
 
 POSITION                                       TOTAL-FORCE (eV/Angst)
 -----------------------------------------------------------------------------------
      4.27999      4.01000      0.00000         0.205076     -0.017886      0.517631
      5.70701      6.01499      0.00000        -0.229114     -0.020977      0.569476
      4.27999      0.00000      0.00000         0.231990      0.011922      0.581771
      5.70701      2.00500      0.00000        -0.212168      0.022848      0.563791
      0.00000      4.01000      0.00000         0.239928      0.002093      0.551982
      1.42700      6.01499      0.00000        -0.214811      0.024386      0.505564
      0.00000      0.00000      0.00000         0.268598     -0.021815      0.537605
      1.42700      2.00500      0.00000        -0.251337     -0.034927      0.531509
      6.42000      4.01000      1.23500        -0.066039      0.024036     -0.522407
      7.84699      6.01499      1.23500        -0.024661      0.031736     -0.529567
      6.42000      0.00000      1.23500        -0.059768     -0.016396     -0.578048
      7.84699      2.00500      1.23500         0.045243     -0.005751     -0.534870
      2.14000      4.01000      1.23500        -0.042949     -0.016440     -0.618632
      3.56700      6.01499      1.23500         0.066010      0.035379     -0.674349
      2.14000      0.00000      1.23500         0.007094      0.047631     -0.461850
      3.56700      2.00500      1.23500         0.019318     -0.015546     -0.448932
      4.29151      4.01150      2.48453         0.001515      0.000941      0.005595
      5.68635      6.02576      2.50181        -0.004056      0.000225      0.002724
      4.27724      0.01414      2.48998        -0.003434     -0.001544     -0.002424
      5.68614      1.99564      2.50806        -0.000243     -0.001009     -0.002191
      0.01203      4.00146      2.50176         0.001219      0.002161     -0.007233
      1.39459      6.01928      2.47422         0.001686     -0.005493      0.001822
      0.04783      0.00763      2.48703        -0.007479     -0.003899     -0.003335
      1.43569      1.99798      2.48606         0.004400      0.003098      0.000954
      6.47109      4.01368      3.61976        -0.000767     -0.002769     -0.002095
      7.80047      6.01589      3.62502         0.003829      0.002106      0.003546
      6.49701      8.00928      3.60167         0.006282     -0.002247     -0.001828
      7.78297      1.99758      3.61649        -0.002715      0.001708      0.003466
      2.16657      4.02988      3.60895        -0.002956     -0.003209     -0.013497
      3.50589      6.01396      3.59356         0.003242     -0.004459      0.007214
      2.14716      7.99548      3.75410         0.005533     -0.006460      0.006745
      3.53137      2.08849      3.67438         0.003105     -0.002536      0.001925
      1.41713      1.00940      6.25752         0.003169     -0.007861      0.002734
      2.70317      0.34263      5.81578        -0.000734     -0.001612      0.002757
      3.21739      7.39996      6.87547        -0.003678      0.003622      0.001389
      3.70283      1.38036      5.61645        -0.008938     -0.005137      0.000816
      1.53146      1.37317      7.29627        -0.003026     -0.004236     -0.002968
      0.58716      0.29100      6.22551         0.002477      0.000308     -0.000995
      1.16230      1.86020      5.60879         0.000548     -0.002670      0.000969
      2.84367      7.14408      4.84190        -0.003755      0.004888     -0.003255
      4.58107      0.94450      5.49458         0.008481     -0.004903      0.006540
      3.37136      7.94168      7.82346         0.001699     -0.006063      0.000390
      4.16532      6.93212      6.56647         0.003889     -0.000944     -0.000473
      2.48367      6.59801      7.03708         0.008297     -0.002300      0.000037
 -----------------------------------------------------------------------------------
    total drift:                               -0.013145      0.018608      0.422012


--------------------------------------------------------------------------------------------------------



  FREE ENERGIE OF THE ION-ELECTRON SYSTEM (eV)
  ---------------------------------------------------
  free  energy   TOTEN  =      -273.23806801 eV

  energy  without entropy=     -273.20737174  energy(sigma->0) =     -273.23039395
 


--------------------------------------------------------------------------------------------------------


    POTLOK:  cpu time    0.48: real time    0.48


--------------------------------------------------------------------------------------------------------


 Dimer: Init Mode:
 Dimer: MODECAR found
 Dimer: -----------------
 Dimer: Itr    1 Rot    0

 Dimer: Central Point
 Dimer: F0      0.037704

 Dimer: Projection
 Dimer: N*F0  7.595889576845438E-003
 Dimer: F0sq  1.421581193382759E-003
 Dimer: Feffsq   5.769753846362917E-005
 
 stress matrix after NEB project (eV)
    -24.94253     -0.01514      0.02252
     -0.01514    -23.47558     -0.21406
      0.02252     -0.21406     -7.78930
  FORCES: max atom, RMS     0.014185    0.005684
  FORCE total and by dimension    0.037704    0.013497
  Stress total and by dimension   35.128326   24.942533
 OPT: skip step - force has converged


--------------------------------------------------------------------------------------------------------


  
 reached required accuracy - stopping structural energy minimisation
     LOOP+:  cpu time 2081.09: real time 2081.41
    4ORBIT:  cpu time    0.00: real time    0.00

 total amount of memory used by VASP on root node   203387. kBytes
========================================================================

   base      :      30000. kBytes
   nonlr-proj:       7829. kBytes
   fftplans  :       7367. kBytes
   grid      :      34170. kBytes
   one-center:       1368. kBytes
   wavefun   :     122653. kBytes
 
  
  
 General timing and accounting informations for this job:
 ========================================================
  
                  Total CPU time used (sec):     2089.468
                            User time (sec):     2087.800
                          System time (sec):        1.668
                         Elapsed time (sec):     2090.943
  
                   Maximum memory used (kb):      244488.
                   Average memory used (kb):           0.
  
                          Minor page faults:       291375
                          Major page faults:           58
                 Voluntary context switches:         1117
