 vasp.5.3.5 31Mar14 (build Jan 31 2018 16:04:57) complex                        
  
 executed on             LinuxIFC date 2018.12.29  16:58:23
 running on    8 total cores
 distrk:  each k-point on    8 cores,    1 groups
 distr:  one band on NCORES_PER_BAND=   1 cores,    8 groups


--------------------------------------------------------------------------------------------------------


 INCAR:
 POTCAR:    PAW_PBE Co 02Aug2007                  
 POTCAR:    PAW_PBE C 08Apr2002                   
 POTCAR:    PAW_PBE O 08Apr2002                   
 POTCAR:    PAW_PBE H 15Jun2001                   

 ----------------------------------------------------------------------------- 
|                                                                             |
|           W    W    AA    RRRRR   N    N  II  N    N   GGGG   !!!           |
|           W    W   A  A   R    R  NN   N  II  NN   N  G    G  !!!           |
|           W    W  A    A  R    R  N N  N  II  N N  N  G       !!!           |
|           W WW W  AAAAAA  RRRRR   N  N N  II  N  N N  G  GGG   !            |
|           WW  WW  A    A  R   R   N   NN  II  N   NN  G    G                |
|           W    W  A    A  R    R  N    N  II  N    N   GGGG   !!!           |
|                                                                             |
|      For optimal performance we recommend to set                            |
|        NCORE= 4 - approx SQRT( number of cores)                             |
|      NCORE specifies how many cores store one orbital (NPAR=cpu/NCORE).     |
|      This setting can  greatly improve the performance of VASP for DFT.     |
|      The default, NPAR=number of cores might be grossly inefficient         |
|      on modern multi-core architectures or massively parallel machines.     |
|      Do your own testing !!!!                                               |
|      Unfortunately you need to use the default for GW and RPA calculations. |
|      (for HF NCORE is supported but not extensively tested yet)             |
|                                                                             |
 ----------------------------------------------------------------------------- 

 POTCAR:    PAW_PBE Co 02Aug2007                  
   VRHFIN =Co: d8 s1                                                            
   LEXCH  = PE                                                                  
   EATOM  =   813.3670 eV,   59.7808 Ry                                         
                                                                                
   TITEL  = PAW_PBE Co 02Aug2007                                                
   LULTRA =        F    use ultrasoft PP ?                                      
   IUNSCR =        1    unscreen: 0-lin 1-nonlin 2-no                           
   RPACOR =    2.000    partial core radius                                     
   POMASS =   58.933; ZVAL   =    9.000    mass and valenz                      
   RCORE  =    2.300    outmost cutoff radius                                   
   RWIGS  =    2.460; RWIGS  =    1.302    wigner-seitz radius (au A)           
   ENMAX  =  267.968; ENMIN  =  200.976 eV                                      
   RCLOC  =    1.203    cutoff for local pot                                    
   LCOR   =        T    correct aug charges                                     
   LPAW   =        T    paw PP                                                  
   EAUG   =  477.818                                                            
   DEXC   =    0.000                                                            
   RMAX   =    2.360    core radius for proj-oper                               
   RAUG   =    1.300    factor for augmentation sphere                          
   RDEP   =    2.393    radius for radial grids                                 
   RDEPT  =    1.864    core radius for aug-charge                              
                                                                                
   Atomic configuration                                                         
    9 entries                                                                   
     n  l   j            E        occ.                                          
     1  0  0.50     -7587.6674   2.0000                                         
     2  0  0.50      -893.6084   2.0000                                         
     2  1  1.50      -764.5805   6.0000                                         
     3  0  0.50       -97.5973   2.0000                                         
     3  1  1.50       -60.9648   6.0000                                         
     3  2  2.50        -4.2382   8.0000                                         
     4  0  0.50        -4.3746   1.0000                                         
     4  1  1.50        -4.0817   0.0000                                         
     4  3  2.50        -1.3606   0.0000                                         
   Description                                                                  
     l       E           TYP  RCUT    TYP  RCUT                                 
     2     -4.2382362     23  2.300                                             
     2     -5.5988188     23  2.300                                             
     0     -4.3745797     23  2.300                                             
     0      5.7660125     23  2.300                                             
     1     -2.7211652     23  2.300                                             
     1     16.9860234     23  2.300                                             
  local pseudopotential read in
  partial core-charges read in
  partial kinetic energy density read in
  atomic valenz-charges read in
  non local Contribution for L=           2  read in
    real space projection operators read in
  non local Contribution for L=           2  read in
    real space projection operators read in
  non local Contribution for L=           0  read in
    real space projection operators read in
  non local Contribution for L=           0  read in
    real space projection operators read in
  non local Contribution for L=           1  read in
    real space projection operators read in
  non local Contribution for L=           1  read in
    real space projection operators read in
    PAW grid and wavefunctions read in
 
   number of l-projection  operators is LMAX  =           6
   number of lm-projection operators is LMMAX =          18
 
 POTCAR:    PAW_PBE C 08Apr2002                   
   VRHFIN =C: s2p2                                                              
   LEXCH  = PE                                                                  
   EATOM  =   147.1560 eV,   10.8157 Ry                                         
                                                                                
   TITEL  = PAW_PBE C 08Apr2002                                                 
   LULTRA =        F    use ultrasoft PP ?                                      
   IUNSCR =        1    unscreen: 0-lin 1-nonlin 2-no                           
   RPACOR =    1.200    partial core radius                                     
   POMASS =   12.011; ZVAL   =    4.000    mass and valenz                      
   RCORE  =    1.500    outmost cutoff radius                                   
   RWIGS  =    1.630; RWIGS  =    0.863    wigner-seitz radius (au A)           
   ENMAX  =  400.000; ENMIN  =  300.000 eV                                      
   ICORE  =        2    local potential                                         
   LCOR   =        T    correct aug charges                                     
   LPAW   =        T    paw PP                                                  
   EAUG   =  644.873                                                            
   DEXC   =    0.000                                                            
   RMAX   =    1.529    core radius for proj-oper                               
   RAUG   =    1.300    factor for augmentation sphere                          
   RDEP   =    1.501    radius for radial grids                                 
   RDEPT  =    1.300    core radius for aug-charge                              
                                                                                
   Atomic configuration                                                         
    4 entries                                                                   
     n  l   j            E        occ.                                          
     1  0  0.50      -273.3789   2.0000                                         
     2  0  0.50       -13.7508   2.0000                                         
     2  1  0.50        -5.2854   2.0000                                         
     3  2  1.50        -5.4423   0.0000                                         
   Description                                                                  
     l       E           TYP  RCUT    TYP  RCUT                                 
     0    -13.7508458     23  1.200                                             
     0     -8.2022199     23  1.200                                             
     1     -5.2854383     23  1.500                                             
     1     34.0145650     23  1.500                                             
     2     -5.4423304      7  1.500                                             
  local pseudopotential read in
  partial core-charges read in
  partial kinetic energy density read in
  atomic valenz-charges read in
  non local Contribution for L=           0  read in
    real space projection operators read in
  non local Contribution for L=           0  read in
    real space projection operators read in
  non local Contribution for L=           1  read in
    real space projection operators read in
  non local Contribution for L=           1  read in
    real space projection operators read in
    PAW grid and wavefunctions read in
 
   number of l-projection  operators is LMAX  =           4
   number of lm-projection operators is LMMAX =           8
 
 POTCAR:    PAW_PBE O 08Apr2002                   
   VRHFIN =O: s2p4                                                              
   LEXCH  = PE                                                                  
   EATOM  =   432.3788 eV,   31.7789 Ry                                         
                                                                                
   TITEL  = PAW_PBE O 08Apr2002                                                 
   LULTRA =        F    use ultrasoft PP ?                                      
   IUNSCR =        1    unscreen: 0-lin 1-nonlin 2-no                           
   RPACOR =    1.200    partial core radius                                     
   POMASS =   16.000; ZVAL   =    6.000    mass and valenz                      
   RCORE  =    1.520    outmost cutoff radius                                   
   RWIGS  =    1.550; RWIGS  =    0.820    wigner-seitz radius (au A)           
   ENMAX  =  400.000; ENMIN  =  300.000 eV                                      
   ICORE  =        2    local potential                                         
   LCOR   =        T    correct aug charges                                     
   LPAW   =        T    paw PP                                                  
   EAUG   =  605.392                                                            
   DEXC   =    0.000                                                            
   RMAX   =    1.553    core radius for proj-oper                               
   RAUG   =    1.300    factor for augmentation sphere                          
   RDEP   =    1.550    radius for radial grids                                 
   RDEPT  =    1.329    core radius for aug-charge                              
                                                                                
   Atomic configuration                                                         
    4 entries                                                                   
     n  l   j            E        occ.                                          
     1  0  0.50      -514.6923   2.0000                                         
     2  0  0.50       -23.9615   2.0000                                         
     2  1  0.50        -9.0305   4.0000                                         
     3  2  1.50        -9.5241   0.0000                                         
   Description                                                                  
     l       E           TYP  RCUT    TYP  RCUT                                 
     0    -23.9615318     23  1.200                                             
     0     -9.5240782     23  1.200                                             
     1     -9.0304911     23  1.520                                             
     1      8.1634956     23  1.520                                             
     2     -9.5240782      7  1.500                                             
  local pseudopotential read in
  partial core-charges read in
  partial kinetic energy density read in
  kinetic energy density of atom read in
  atomic valenz-charges read in
  non local Contribution for L=           0  read in
    real space projection operators read in
  non local Contribution for L=           0  read in
    real space projection operators read in
  non local Contribution for L=           1  read in
    real space projection operators read in
  non local Contribution for L=           1  read in
    real space projection operators read in
    PAW grid and wavefunctions read in
 
   number of l-projection  operators is LMAX  =           4
   number of lm-projection operators is LMMAX =           8
 
 POTCAR:    PAW_PBE H 15Jun2001                   
   VRHFIN =H: ultrasoft test                                                    
   LEXCH  = PE                                                                  
   EATOM  =    12.4884 eV,    0.9179 Ry                                         
                                                                                
   TITEL  = PAW_PBE H 15Jun2001                                                 
   LULTRA =        F    use ultrasoft PP ?                                      
   IUNSCR =        0    unscreen: 0-lin 1-nonlin 2-no                           
   RPACOR =    0.000    partial core radius                                     
   POMASS =    1.000; ZVAL   =    1.000    mass and valenz                      
   RCORE  =    1.100    outmost cutoff radius                                   
   RWIGS  =    0.700; RWIGS  =    0.370    wigner-seitz radius (au A)           
   ENMAX  =  250.000; ENMIN  =  200.000 eV                                      
   RCLOC  =    0.701    cutoff for local pot                                    
   LCOR   =        T    correct aug charges                                     
   LPAW   =        T    paw PP                                                  
   EAUG   =  400.000                                                            
   RMAX   =    1.123    core radius for proj-oper                               
   RAUG   =    1.200    factor for augmentation sphere                          
   RDEP   =    1.112    radius for radial grids                                 
   RDEPT  =    0.926    core radius for aug-charge                              
                                                                                
   Atomic configuration                                                         
    2 entries                                                                   
     n  l   j            E        occ.                                          
     1  0  0.50        -6.4927   1.0000                                         
     2  1  0.50        -3.4015   0.0000                                         
   Description                                                                  
     l       E           TYP  RCUT    TYP  RCUT                                 
     0     -6.4927494     23  1.100                                             
     0      6.8029130     23  1.100                                             
     1     -4.0817478     23  1.100                                             
  local pseudopotential read in
  atomic valenz-charges read in
  non local Contribution for L=           0  read in
    real space projection operators read in
  non local Contribution for L=           0  read in
    real space projection operators read in
  non local Contribution for L=           1  read in
    real space projection operators read in
    PAW grid and wavefunctions read in
 
   number of l-projection  operators is LMAX  =           3
   number of lm-projection operators is LMMAX =           5
 
 Optimization of the real space projectors (new method)

 maximal supplied QI-value         = 16.25
 optimisation between [QCUT,QGAM] = [ 10.24, 20.48] = [ 29.35,117.42] Ry 
 Optimized for a Real-space Cutoff    1.34 Angstroem

   l    n(q)    QCUT    max X(q) W(low)/X(q) W(high)/X(q)  e(spline) 
   2      7    10.239    65.824    0.41E-03    0.10E-02    0.11E-06
   2      7    10.239    61.429    0.41E-03    0.10E-02    0.11E-06
   0      8    10.239    56.174    0.42E-03    0.17E-03    0.96E-07
   0      8    10.239    31.263    0.38E-03    0.16E-03    0.87E-07
   1      8    10.239    19.828    0.20E-03    0.56E-03    0.13E-06
   1      8    10.239    15.139    0.15E-03    0.46E-03    0.11E-06
 Optimization of the real space projectors (new method)

 maximal supplied QI-value         = 25.13
 optimisation between [QCUT,QGAM] = [ 10.05, 20.36] = [ 28.30,116.06] Ry 
 Optimized for a Real-space Cutoff    1.30 Angstroem

   l    n(q)    QCUT    max X(q) W(low)/X(q) W(high)/X(q)  e(spline) 
   0      8    10.053   115.676    0.49E-03    0.72E-03    0.18E-06
   0      8    10.053    87.132    0.49E-03    0.71E-03    0.18E-06
   1      7    10.053     4.429    0.32E-03    0.31E-03    0.18E-06
   1      7    10.053     2.733    0.23E-03    0.19E-03    0.20E-06
 Optimization of the real space projectors (new method)

 maximal supplied QI-value         = 24.76
 optimisation between [QCUT,QGAM] = [ 10.15, 20.30] = [ 28.85,115.39] Ry 
 Optimized for a Real-space Cutoff    1.38 Angstroem

   l    n(q)    QCUT    max X(q) W(low)/X(q) W(high)/X(q)  e(spline) 
   0      8    10.150    20.381    0.22E-03    0.32E-03    0.29E-06
   0      8    10.150    15.268    0.23E-03    0.35E-03    0.30E-06
   1      8    10.150     5.964    0.46E-03    0.53E-03    0.21E-06
   1      8    10.150     5.382    0.38E-03    0.45E-03    0.19E-06
 Optimization of the real space projectors (new method)

 maximal supplied QI-value         = 34.20
 optimisation between [QCUT,QGAM] = [  9.92, 20.18] = [ 27.55,114.04] Ry 
 Optimized for a Real-space Cutoff    1.26 Angstroem

   l    n(q)    QCUT    max X(q) W(low)/X(q) W(high)/X(q)  e(spline) 
   0      8     9.919    19.460    0.50E-03    0.23E-03    0.29E-06
   0      8     9.919    12.209    0.48E-03    0.23E-03    0.28E-06
   1      7     9.919     4.655    0.17E-03    0.75E-03    0.30E-06
  PAW_PBE Co 02Aug2007                  :
 energy of atom  1       EATOM= -813.3670
 kinetic energy error for atom=    0.0093 (will be added to EATOM!!)
  PAW_PBE C 08Apr2002                   :
 energy of atom  2       EATOM= -147.1560
 kinetic energy error for atom=    0.0288 (will be added to EATOM!!)
  PAW_PBE O 08Apr2002                   :
 energy of atom  3       EATOM= -432.3788
 kinetic energy error for atom=    0.1156 (will be added to EATOM!!)
  PAW_PBE H 15Jun2001                   :
 energy of atom  4       EATOM=  -12.4884
 kinetic energy error for atom=    0.0098 (will be added to EATOM!!)
 
 
 POSCAR: Co C O H                                
  positions in direct lattice
  velocities in cartesian coordinates
 exchange correlation table for  LEXCH =        8
   RHO(1)=    0.500       N(1)  =     2000
   RHO(2)=  100.500       N(2)  =     4000

 VTST: version 3.1, (03/28/14)

 CHAIN: initializing optimizer
 
 OPT: Using Conjugate-Gradient optimizer
 OPT: CG, Init
 OPT: CG, FDSTEP      0.005000
 OPT: CG, MAXMOVE      0.200000
 
 CHAIN: Read ICHAIN            2
 
 POSCAR: Co C O H                                
  positions in direct lattice
  velocities in cartesian coordinates
 CHAIN: Running the Dimer method

 Dimer: -----------------
 Dimer: Input Parameters
 Dimer:   Seed      0
 Dimer: RotMax      1
 Dimer:     dR      0.005000
 Dimer:  FNMax      1.000000
 Dimer:  FNMin      0.010000
 Dimer: -----------------
 


--------------------------------------------------------------------------------------------------------


 ion  position               nearest neighbor table
   1  0.222  0.111  0.000-   4 2.47   5 2.47  13 2.47   3 2.47   2 2.47  10 2.47  11 2.47   9 2.47
                             8 2.47
   2  0.556  0.111  0.000-   5 2.47   6 2.47  14 2.47   3 2.47   1 2.47  12 2.47  11 2.47   9 2.47
                             7 2.47
   3  0.889  0.111  0.000-   4 2.47   6 2.47  15 2.47   1 2.47   2 2.47  10 2.47  12 2.47   8 2.47
                             7 2.47
   4  0.222  0.444  0.000-   9 2.47   7 2.47   3 2.47   1 2.47   6 2.47   5 2.47  16 2.47  15 2.47
                            13 2.47
   5  0.556  0.444  0.000-   7 2.47   8 2.47   1 2.47   2 2.47   4 2.47   6 2.47  17 2.47  14 2.47
                            13 2.47
   6  0.889  0.444  0.000-   9 2.47   8 2.47   2 2.47   3 2.47   4 2.47   5 2.47  18 2.47  15 2.47
                            14 2.47
   7  0.556  0.778  0.000-   5 2.47   4 2.47  16 2.47  17 2.47   8 2.47   9 2.47  12 2.47   3 2.47
                             2 2.47
   8  0.889  0.778  0.000-   5 2.47   6 2.47  17 2.47  18 2.47   7 2.47   9 2.47  10 2.47   3 2.47
                             1 2.47
   9  0.222  0.778  0.000-   4 2.47   6 2.47  18 2.47  16 2.47   7 2.47   8 2.47  11 2.47   2 2.47
                             1 2.47
  10  0.000  0.000  0.082-  13 2.47  15 2.47  11 2.47  12 2.47  17 2.47  18 2.47   1 2.47   3 2.47
                             8 2.47  26 2.47  21 2.49  19 2.50
  11  0.333  0.000  0.082-  14 2.47  13 2.47  12 2.47  10 2.47  16 2.47  18 2.47   2 2.47   1 2.47
                             9 2.47  27 2.47  20 2.50  19 2.50
  12  0.667  0.000  0.082-  14 2.47  15 2.47  11 2.47  10 2.47  16 2.47  17 2.47   2 2.47   3 2.47
                             7 2.47  25 2.48  21 2.48  20 2.50
  13  0.333  0.333  0.082-  10 2.47  11 2.47   1 2.47  14 2.47  15 2.47  16 2.47  17 2.47   5 2.47
                             4 2.47  19 2.47  22 2.49  23 2.51
  14  0.667  0.333  0.082-  11 2.47  12 2.47   2 2.47  13 2.47  15 2.47  17 2.47  18 2.47   5 2.47
                             6 2.47  20 2.48  24 2.48  23 2.51
  15  1.000  0.333  0.082-  10 2.47  12 2.47   3 2.47  13 2.47  14 2.47  18 2.47  16 2.47   4 2.47
                             6 2.47  21 2.47  22 2.50  24 2.50
  16  0.333  0.667  0.082-   7 2.47   9 2.47  17 2.47  18 2.47  13 2.47  15 2.47   4 2.47  12 2.47
                            11 2.47  27 2.48  25 2.49  22 2.49
  17  0.667  0.667  0.082-   7 2.47   8 2.47  16 2.47  18 2.47  13 2.47  14 2.47   5 2.47  10 2.47
                            12 2.47  26 2.48  25 2.49  23 2.51
  18  1.000  0.667  0.082-   9 2.47   8 2.47  16 2.47  17 2.47  15 2.47  14 2.47   6 2.47  10 2.47
                            11 2.47  27 2.48  26 2.48  24 2.49
  19  0.224  0.115  0.164-  28 2.39  29 2.39  22 2.44  23 2.45  31 2.45  21 2.47  20 2.47  13 2.47
                            26 2.48  27 2.49  10 2.50  11 2.50
  20  0.558  0.115  0.164-  29 2.39  30 2.42  24 2.44  23 2.44  21 2.47  19 2.47  14 2.48  25 2.48
                            27 2.49  32 2.50  11 2.50  12 2.50
  21  0.889  0.113  0.164-  28 2.39  33 2.40  30 2.42  20 2.47  22 2.47  24 2.47  25 2.47  19 2.47
                            15 2.47  26 2.47  12 2.48  10 2.49
  22  0.223  0.445  0.165-  34 2.40  33 2.40  31 2.44  19 2.44  21 2.47  23 2.47  25 2.47  27 2.47
                            13 2.49  16 2.49  24 2.50  15 2.50
  23  0.556  0.444  0.165-  35 2.39  31 2.44  20 2.44  24 2.44  19 2.45  22 2.47  26 2.48  25 2.49
                            32 2.49  14 2.51  17 2.51  13 2.51
  24  0.886  0.445  0.165-  36 2.39  33 2.40  20 2.44  23 2.44  26 2.47  21 2.47  27 2.48  14 2.48
                            18 2.49  22 2.50  32 2.50  15 2.50
  25  0.556  0.780  0.164-  35 2.38  34 2.40  30 2.41  27 2.47  21 2.47  22 2.47  26 2.48  12 2.48
                            20 2.48  23 2.49  16 2.49  17 2.49
  26  0.890  0.779  0.164-  35 2.39  28 2.39  36 2.39  27 2.47  24 2.47  10 2.47  21 2.47  25 2.48
                            23 2.48  19 2.48  18 2.48  17 2.48
  27  0.222  0.778  0.164-  29 2.36  36 2.40  34 2.41  26 2.47  25 2.47  11 2.47  22 2.47  18 2.48
                            16 2.48  24 2.48  20 2.49  19 2.49
  28  0.999  0.000  0.242-  26 2.39  19 2.39  21 2.39  35 2.43  36 2.46  30 2.46  33 2.47  29 2.47
                            31 2.48
  29  0.330  0.994  0.241-  27 2.36  19 2.39  20 2.39  36 2.42  34 2.43  28 2.47  30 2.47  32 2.51
                            31 2.53
  30  0.667  0.000  0.243-  45 1.95  25 2.41  20 2.42  21 2.42  35 2.44  28 2.46  33 2.47  34 2.47
                            32 2.47  29 2.47
  31  0.333  0.336  0.245-  40 2.23  22 2.44  23 2.44  19 2.45  34 2.46  33 2.47  32 2.48  28 2.48
                            35 2.50  29 2.53
  32  0.666  0.333  0.248-  45 1.56  37 2.27  33 2.47  30 2.47  31 2.48  36 2.49  23 2.49  20 2.50
                            24 2.50  35 2.51  29 2.51
  33  0.999  0.333  0.242-  24 2.40  21 2.40  22 2.40  30 2.47  31 2.47  28 2.47  32 2.47  34 2.48
                            36 2.48
  34  0.333  0.668  0.242-  22 2.40  25 2.40  27 2.41  29 2.43  31 2.46  36 2.46  30 2.47  33 2.48
                            35 2.48
  35  0.670  0.673  0.242-  25 2.38  26 2.39  23 2.39  28 2.43  30 2.44  36 2.47  34 2.48  31 2.50
                            32 2.51
  36  0.001  0.669  0.242-  24 2.39  26 2.39  27 2.40  29 2.42  34 2.46  28 2.46  35 2.47  33 2.48
                            32 2.49
  37  0.575  0.300  0.337-  40 1.45  39 1.51  38 1.52  32 2.27
  38  0.550  0.129  0.376-  42 1.10  44 1.10  43 1.10  37 1.52
  39  0.738  0.512  0.358-  46 1.10  48 1.10  47 1.11  37 1.51
  40  0.381  0.301  0.333-  41 0.99  37 1.45  31 2.23
  41  0.266  0.155  0.333-  40 0.99
  42  0.696  0.124  0.377-  38 1.10
  43  0.513  0.160  0.416-  38 1.10
  44  0.426  0.974  0.362-  38 1.10
  45  0.579  0.153  0.291-  32 1.56  30 1.95
  46  0.895  0.530  0.355-  39 1.10
  47  0.705  0.526  0.401-  39 1.11
  48  0.738  0.640  0.335-  39 1.10
 
  LATTYP: Found a hexagonal cell.
 ALAT       =     7.4100015225
 C/A-ratio  =     3.3333326485
  
  Lattice vectors:
  
 A1 = (   7.4100000000,   0.0000000000,   0.0000000000)
 A2 = (  -3.7050000000,   6.4172500001,   0.0000000000)
 A3 = (   0.0000000000,   0.0000000000,  24.7000000000)


Analysis of symmetry for initial positions (statically):
=====================================================================
 Subroutine PRICEL returns:
 Original cell was already a primitive cell.
 

 Routine SETGRP: Setting up the symmetry group for a 
 hexagonal supercell.


 Subroutine GETGRP returns: Found  1 space group operations
 (whereof  1 operations were pure point group operations)
 out of a pool of 24 trial point group operations.


The static configuration has the point symmetry C_1 .


Analysis of symmetry for dynamics (positions and initial velocities):
=====================================================================
 Subroutine PRICEL returns:
 Original cell was already a primitive cell.
 

 Routine SETGRP: Setting up the symmetry group for a 
 hexagonal supercell.


 Subroutine GETGRP returns: Found  1 space group operations
 (whereof  1 operations were pure point group operations)
 out of a pool of 24 trial point group operations.


The dynamic configuration has the point symmetry C_1 .


Analysis of constrained symmetry for selective dynamics:
=====================================================================
 Subroutine PRICEL returns:
 Original cell was already a primitive cell.
 

 Routine SETGRP: Setting up the symmetry group for a 
 hexagonal supercell.


 Subroutine GETGRP returns: Found  1 space group operations
 (whereof  1 operations were pure point group operations)
 out of a pool of 24 trial point group operations.


The constrained configuration has the point symmetry C_1 .


Analysis of magnetic symmetry:
=====================================================================
 Subroutine PRICEL returns:
 Original cell was already a primitive cell.
 

 Subroutine MAGSYM returns: Found  1 space group operations
 (whereof  1 operations were pure point group operations)
 out of a pool of  1 trial space group operations
 (whereof  1 operations were pure point group operations)
 and found also     1 'primitive' translations


The magnetic configuration has the point symmetry C_1 .
 
 
 KPOINTS:  Automatic mesh                         

Automatic generation of k-mesh.
Space group operators:
 irot       det(A)        alpha          n_x          n_y          n_z        tau_x        tau_y        tau_z
    1     1.000000     0.000000     1.000000     0.000000     0.000000     0.000000     0.000000     0.000000
 
 Subroutine IBZKPT returns following result:
 ===========================================
 
 Found      5 irreducible k-points:
 
 Following reciprocal coordinates:
            Coordinates               Weight
  0.000000  0.000000  0.000000      1.000000
  0.333333  0.000000  0.000000      2.000000
  0.000000  0.333333  0.000000      2.000000
  0.333333  0.333333  0.000000      2.000000
 -0.333333  0.333333  0.000000      2.000000
 
 Following cartesian coordinates:
            Coordinates               Weight
  0.000000  0.000000  0.000000      1.000000
  0.111111  0.064150  0.000000      2.000000
  0.000000  0.128300  0.000000      2.000000
  0.111111  0.192450  0.000000      2.000000
 -0.111111  0.064150  0.000000      2.000000
 


--------------------------------------------------------------------------------------------------------




 Dimension of arrays:
   k-points           NKPTS =      5   k-points in BZ     NKDIM =      5   number of bands    NBANDS=    240
   number of dos      NEDOS =    301   number of ions     NIONS =     48
   non local maximal  LDIM  =      6   non local SUM 2l+1 LMDIM =     18
   total plane-waves  NPLWV = 163296
   max r-space proj   IRMAX =   1582   max aug-charges    IRDMAX=   5682
   dimension x,y,z NGX =    36 NGY =   36 NGZ =  126
   dimension x,y,z NGXF=    72 NGYF=   72 NGZF=  252
   support grid    NGXF=    72 NGYF=   72 NGZF=  252
   ions per type =              36   3   1   8
 NGX,Y,Z   is equivalent  to a cutoff of   8.08,  8.08,  8.48 a.u.
 NGXF,Y,Z  is equivalent  to a cutoff of  16.15, 16.15, 16.96 a.u.


 I would recommend the setting:
   dimension x,y,z NGX =    36 NGY =   36 NGZ =  121
 SYSTEM =  unknown system                          
 POSCAR =  Co C O H                                

 Startparameter for this run:
   NWRITE =      2    write-flag & timer
   PREC   = normal    normal or accurate (medium, high low for compatibility)
   ISTART =      0    job   : 0-new  1-cont  2-samecut
   ICHARG =      2    charge: 1-file 2-atom 10-const
   ISPIN  =      2    spin polarized calculation?
   LNONCOLLINEAR =      F non collinear calculations
   LSORBIT =      F    spin-orbit coupling
   INIWAV =      1    electr: 0-lowe 1-rand  2-diag
   LASPH  =      F    aspherical Exc in radial PAW
   METAGGA=      F    non-selfconsistent MetaGGA calc.
   LSOL =      F    Solvation

 Electronic Relaxation 1
   ENCUT  =  400.0 eV  29.40 Ry    5.42 a.u.  12.08 12.08 40.28*2*pi/ulx,y,z
   ENINI  =  400.0     initial cutoff
   ENAUG  =  644.9 eV  augmentation charge cutoff
   NELM   =     60;   NELMIN=  2; NELMDL= -5     # of ELM steps 
   EDIFF  = 0.1E-05   stopping-criterion for ELM
   LREAL  =      T    real-space projection
   NLSPLINE    = F    spline interpolate recip. space projectors
   LCOMPAT=      F    compatible to vasp.4.4
   GGA_COMPAT  = T    GGA compatible to vasp.4.4-vasp.4.6
   LMAXPAW     = -100 max onsite density
   LMAXMIX     =    2 max onsite mixed and CHGCAR
   VOSKOWN=      0    Vosko Wilk Nusair interpolation
   ROPT   =   -0.00050  -0.00050  -0.00050  -0.00050
 Ionic relaxation
   EDIFFG = -.1E-01   stopping-criterion for IOM
   NSW    =    500    number of steps for IOM
   NBLOCK =      1;   KBLOCK =    500    inner block; outer block 
   IBRION =      3    ionic relax: 0-MD 1-quasi-New 2-CG
   NFREE  =      0    steps in history (QN), initial steepest desc. (CG)
   ISIF   =      2    stress and relaxation
   IWAVPR =     11    prediction:  0-non 1-charg 2-wave 3-comb
   ISYM   =      2    0-nonsym 1-usesym 2-fastsym
   LCORR  =      T    Harris-Foulkes like correction to forces

   POTIM  = 0.0000    time-step for ionic-motion
   TEIN   =    0.0    initial temperature
   TEBEG  =    0.0;   TEEND  =   0.0 temperature during run
   SMASS  =  -3.00    Nose mass-parameter (am)
   estimated Nose-frequenzy (Omega)   =  0.10E-29 period in steps =  0.00 mass=  -0.125E-26a.u.
   SCALEE = 1.0000    scale energy and forces
   NPACO  =    256;   APACO  = 16.0  distance and # of slots for P.C.
   PSTRESS=    0.0 pullay stress

  Mass of Ions in am
   POMASS =  58.93 12.01 16.00  1.00
  Ionic Valenz
   ZVAL   =   9.00  4.00  6.00  1.00
  Atomic Wigner-Seitz radii
   RWIGS  =  -1.00 -1.00 -1.00 -1.00
  virtual crystal weights 
   VCA    =   1.00  1.00  1.00  1.00
   NELECT =     350.0000    total number of electrons
   NUPDOWN=      -1.0000    fix difference up-down

 DOS related values:
   EMIN   =  10.00;   EMAX   =-10.00  energy-range for DOS
   EFERMI =   0.00
   ISMEAR =     2;   SIGMA  =   0.20  broadening in eV -4-tet -1-fermi 0-gaus

 Electronic relaxation 2 (details)
   IALGO  =     38    algorithm
   LDIAG  =      T    sub-space diagonalisation (order eigenvalues)
   LSUBROT=      F    optimize rotation matrix (better conditioning)
   TURBO    =      0    0=normal 1=particle mesh
   IRESTART =      0    0=no restart 2=restart with 2 vectors
   NREBOOT  =      0    no. of reboots
   NMIN     =      0    reboot dimension
   EREF     =   0.00    reference energy to select bands
   IMIX   =      4    mixing-type and parameters
     AMIX     =   0.40;   BMIX     =  1.00
     AMIX_MAG =   1.60;   BMIX_MAG =  1.00
     AMIN     =   0.10
     WC   =   100.;   INIMIX=   1;  MIXPRE=   1;  MAXMIX= -45

 Intra band minimization:
   WEIMIN = 0.0010     energy-eigenvalue tresh-hold
   EBREAK =  0.10E-08  absolut break condition
   DEPER  =   0.30     relativ break condition  

   TIME   =   0.40     timestep for ELM

  volume/ion in A,a.u.               =      24.47       165.13
  Fermi-wavevector in a.u.,A,eV,Ry     =   1.093477  2.066371 16.268363  1.195691
  Thomas-Fermi vector in A             =   2.229763
 
 Write flags
   LWAVE  =      F    write WAVECAR
   LCHARG =      F    write CHGCAR
   LVTOT  =      F    write LOCPOT, total local potential
   LVHAR  =      F    write LOCPOT, Hartree potential only
   LELF   =      F    write electronic localiz. function (ELF)
   LORBIT =      0    0 simple, 1 ext, 2 COOP (PROOUT)


 Dipole corrections
   LMONO  =      F    monopole corrections only (constant potential shift)
   LDIPOL =      F    correct potential (dipole corrections)
   IDIPOL =      3    1-x, 2-y, 3-z, 4-all directions 
   EPSILON=  1.0000000 bulk dielectric constant

 Exchange correlation treatment:
   GGA     =    PE    GGA type
   LEXCH   =     8    internal setting for exchange type
   VOSKOWN=      0    Vosko Wilk Nusair interpolation
   LHFCALC =     F    Hartree Fock is set to
   LHFONE  =     F    Hartree Fock one center treatment
   AEXX    =    0.0000 exact exchange contribution

 Linear response parameters
   LEPSILON=     F    determine dielectric tensor
   LRPA    =     F    only Hartree local field effects (RPA)
   LNABLA  =     F    use nabla operator in PAW spheres
   LVEL    =     F    velocity operator in full k-point grid
   LINTERFAST=   F  fast interpolation
   KINTER  =     0    interpolate to denser k-point grid
   CSHIFT  =0.1000    complex shift for real part using Kramers Kronig
   OMEGAMAX=  -1.0    maximum frequency
   DEG_THRESHOLD= 0.2000000E-02 threshold for treating states as degnerate
   RTIME   =    0.100 relaxation time in fs

 Orbital magnetization related:
   ORBITALMAG=     F  switch on orbital magnetization
   LCHIMAG   =     F  perturbation theory with respect to B field
   DQ        =  0.001000  dq finite difference perturbation B field



--------------------------------------------------------------------------------------------------------


 quickmin algorithm: (dynamic with friction)
   using selective dynamics as specified on POSCAR
 charge density and potential will be updated during run
 spin polarized calculation
 Variant of blocked Davidson
 Davidson routine will perform the subspace rotation
 perform sub-space diagonalisation
    after iterative eigenvector-optimisation
 modified Broyden-mixing scheme, WC =      100.0
 initial mixing is a Kerker type mixing with AMIX =  0.4000 and BMIX =      1.0000
 Hartree-type preconditioning will be used
 using additional bands           65
 real space projection scheme for non local part
 use partial core corrections
 calculate Harris-corrections to forces 
   (improved forces if not selfconsistent)
 use gradient corrections 
 use of overlap-Matrix (Vanderbilt PP)
 Methfessel and Paxton  Order N= 2 SIGMA  =   0.20


--------------------------------------------------------------------------------------------------------


  energy-cutoff  :      400.00
  volume of cell :     1174.53
      direct lattice vectors                 reciprocal lattice vectors
     7.410000000  0.000000000  0.000000000     0.134952767  0.077914995  0.000000000
    -3.705000000  6.417250000  0.000000000     0.000000000  0.155829989  0.000000000
     0.000000000  0.000000000 24.700000000     0.000000000  0.000000000  0.040485830

  length of vectors
     7.410000000  7.410001522 24.700000000     0.155830021  0.155829989  0.040485830


 
 k-points in units of 2pi/SCALE and weight:  Automatic mesh                         
   0.00000000  0.00000000  0.00000000       0.111
   0.11111111  0.06415001  0.00000000       0.222
   0.00000000  0.12830002  0.00000000       0.222
   0.11111111  0.19245004  0.00000000       0.222
  -0.11111111  0.06415001  0.00000000       0.222
 
 k-points in reciprocal lattice and weights:  Automatic mesh                         
   0.00000000  0.00000000  0.00000000       0.111
   0.33333333  0.00000000  0.00000000       0.222
   0.00000000  0.33333333  0.00000000       0.222
   0.33333333  0.33333333  0.00000000       0.222
  -0.33333333  0.33333333  0.00000000       0.222
 
 position of ions in fractional coordinates (direct lattice) 
   0.22222237  0.11111141  0.00000000
   0.55555571  0.11111141  0.00000000
   0.88888904  0.11111141  0.00000000
   0.22222206  0.44444412  0.00000000
   0.55555539  0.44444412  0.00000000
   0.88888872  0.44444412  0.00000000
   0.55555431  0.77777528  0.00000000
   0.88888764  0.77777528  0.00000000
   0.22222097  0.77777528  0.00000000
   0.00000000  0.00000000  0.08164980
   0.33333333  0.00000000  0.08164980
   0.66666667  0.00000000  0.08164980
   0.33333302  0.33333270  0.08164980
   0.66666635  0.33333270  0.08164980
   0.99999968  0.33333270  0.08164980
   0.33333309  0.66666617  0.08164980
   0.66666642  0.66666617  0.08164980
   0.99999975  0.66666617  0.08164980
   0.22382953  0.11531305  0.16430494
   0.55758891  0.11518460  0.16438235
   0.88918953  0.11291769  0.16380625
   0.22323606  0.44482922  0.16452160
   0.55627899  0.44426453  0.16534387
   0.88626354  0.44464516  0.16450335
   0.55596373  0.77966907  0.16407767
   0.89004252  0.77947875  0.16376405
   0.22220285  0.77820520  0.16355557
   0.99922514  0.00039200  0.24160590
   0.32966499  0.99386920  0.24111219
   0.66661962  0.00026512  0.24297562
   0.33323401  0.33621075  0.24543697
   0.66636104  0.33347385  0.24813548
   0.99892789  0.33330726  0.24225646
   0.33296560  0.66805263  0.24232415
   0.66981816  0.67297155  0.24164680
   0.00103870  0.66885604  0.24177942
   0.57498381  0.29983849  0.33703028
   0.55005476  0.12876906  0.37552644
   0.73816269  0.51153870  0.35770296
   0.38076717  0.30055871  0.33313499
   0.26556028  0.15480465  0.33257842
   0.69614433  0.12449151  0.37725270
   0.51265167  0.16004652  0.41647698
   0.42640972  0.97413820  0.36200248
   0.57913761  0.15250571  0.29057366
   0.89451078  0.53030226  0.35460113
   0.70526846  0.52585060  0.40076976
   0.73822613  0.63984334  0.33507907
 
 position of ions in cartesian coordinates  (Angst):
   1.23500000  0.71302972  0.00000000
   3.70500000  0.71302972  0.00000000
   6.17500000  0.71302972  0.00000000
  -0.00000000  2.85210900  0.00000000
   2.47000000  2.85210900  0.00000000
   4.94000000  2.85210900  0.00000000
   1.23500000  4.99117840  0.00000000
   3.70500000  4.99117840  0.00000000
  -1.23500000  4.99117840  0.00000000
   0.00000000  0.00000000  2.01675006
   2.47000000  0.00000000  2.01675006
   4.94000000  0.00000000  2.01675006
   1.23500000  2.13907928  2.01675006
   3.70500000  2.13907928  2.01675006
   6.17500000  2.13907928  2.01675006
   0.00000000  4.27816350  2.01675006
   2.47000000  4.27816350  2.01675006
   4.94000000  4.27816350  2.01675006
   1.23134194  0.73999269  4.05833212
   3.70497487  0.73916834  4.06024392
   6.17053441  0.72462103  4.04601445
   0.00608692  2.85458031  4.06368341
   2.47602725  2.85095657  4.08399369
   4.91980248  2.85339918  4.06323281
   1.23101733  5.00333137  4.05271843
   3.70724629  5.00211002  4.04497200
  -1.23672714  4.99393729  4.03982246
   7.40280592  0.00251556  5.96766582
  -1.23946777  6.37790711  5.95547108
   4.93866911  0.00170136  6.00149786
   1.22360315  2.15754845  6.06229327
   3.70221466  2.13998506  6.12894647
   6.16715230  2.13891598  5.98373453
  -0.00785991  4.28706077  5.98540650
   2.46999296  4.31862665  5.96867598
  -2.47041486  4.29221641  5.97195172
   3.14972838  1.92413857  8.32464788
   3.59881641  0.82634327  9.27550319
   3.57453464  3.28267172  8.83526301
   1.70791469  1.92876036  8.22843420
   1.39425048  0.99342012  8.21468693
   4.69718844  0.79889312  9.31814178
   3.20577654  1.02705855 10.28698146
  -0.44948604  6.25128839  8.94146121
   3.72637605  0.97866727  7.17716949
   4.66355499  3.40308220  8.75864781
   3.27776283  3.37451476  9.89901313
   3.09963604  4.10603465  8.27645304
 


--------------------------------------------------------------------------------------------------------


 k-point  1 :   0.0000 0.0000 0.0000  plane waves:   21237
 k-point  2 :   0.3333 0.0000 0.0000  plane waves:   21309
 k-point  3 :   0.0000 0.3333 0.0000  plane waves:   21309
 k-point  4 :   0.3333 0.3333 0.0000  plane waves:   21354
 k-point  5 :  -0.3333 0.3333 0.0000  plane waves:   21309

 maximum and minimum number of plane-waves per node :     21354    21237

 maximum number of plane-waves:     21354
 maximum index in each direction: 
   IXMAX=   12   IYMAX=   12   IZMAX=   40
   IXMIN=  -12   IYMIN=  -12   IZMIN=  -40

 WARNING: aliasing errors must be expected set NGX to  50 to avoid them
 WARNING: aliasing errors must be expected set NGY to  50 to avoid them
 WARNING: aliasing errors must be expected set NGZ to 162 to avoid them
 aliasing errors are usually negligible using standard VASP settings
 and one can safely disregard these warnings

 serial   3D FFT for wavefunctions
 parallel 3D FFT for charge:
    minimum data exchange during FFTs selected (reduces bandwidth)


 total amount of memory used by VASP on root node   182358. kBytes
========================================================================

   base      :      30000. kBytes
   nonlr-proj:       9794. kBytes
   fftplans  :       6203. kBytes
   grid      :      28885. kBytes
   one-center:       1492. kBytes
   wavefun   :     105984. kBytes
 
     INWAV:  cpu time    0.00: real time    0.00
 Broyden mixing: mesh for mixing (old mesh)
   NGX = 25   NGY = 25   NGZ = 81
  (NGX  = 72   NGY  = 72   NGZ  =252)
  gives a total of  50625 points

 initial charge density was supplied:
 charge density of overlapping atoms calculated
 number of electron     350.0000000 magnetization      58.6800000
 keeping initial charge density in first step


--------------------------------------------------------------------------------------------------------


 Maximum index for non-local projection operator         1491
 Maximum index for augmentation-charges          726 (set IRDMAX)


--------------------------------------------------------------------------------------------------------


 First call to EWALD:  gamma=   0.168
 Maximum number of real-space cells 4x 4x 1
 Maximum number of reciprocal cells 2x 2x 6

 FEWALD executed in parallel
    FEWALD:  cpu time    0.00: real time    0.00


----------------------------------------- Iteration    1(   1)  ---------------------------------------


    POTLOK:  cpu time    0.34: real time    0.34
    SETDIJ:  cpu time    0.05: real time    0.05
     EDDAV:  cpu time   29.04: real time   29.13
       DOS:  cpu time    0.00: real time    0.00
    --------------------------------------------
      LOOP:  cpu time   29.44: real time   29.52

 eigenvalue-minimisations  :  4800
 total energy-change (2. order) : 0.2664401E+04  (-0.1286432E+05)
 number of electron     350.0000000 magnetization      58.6800000
 augmentation part      350.0000000 magnetization      58.6800000

 Free energy of the ion-electron system (eV)
  ---------------------------------------------------
  alpha Z        PSCENC =       535.95746614
  Ewald energy   TEWEN  =    167131.68601729
  -Hartree energ DENC   =   -196259.04759929
  -exchange      EXHF   =         0.00000000
  -V(xc)+E(xc)   XCENC  =       693.29126167
  PAW double counting   =     26634.84132827   -28546.63490259
  entropy T*S    EENTRO =         0.00560205
  eigenvalues    EBANDS =      2219.94978469
  atomic energy  EATOM  =     30254.35235659
  Solvation contrib.  Ediel  =         0.00000000
  ---------------------------------------------------
  free energy    TOTEN  =      2664.40131480 eV

  energy without entropy =     2664.39571276  energy(sigma->0) =     2664.39991429


--------------------------------------------------------------------------------------------------------




----------------------------------------- Iteration    1(   2)  ---------------------------------------


     EDDAV:  cpu time   29.54: real time   29.57
       DOS:  cpu time    0.00: real time    0.00
    --------------------------------------------
      LOOP:  cpu time   29.54: real time   29.58

 eigenvalue-minimisations  :  4800
 total energy-change (2. order) :-0.2675538E+04  (-0.2506214E+04)
 number of electron     350.0000000 magnetization      58.6800000
 augmentation part      350.0000000 magnetization      58.6800000

 Free energy of the ion-electron system (eV)
  ---------------------------------------------------
  alpha Z        PSCENC =       535.95746614
  Ewald energy   TEWEN  =    167131.68601729
  -Hartree energ DENC   =   -196259.04759929
  -exchange      EXHF   =         0.00000000
  -V(xc)+E(xc)   XCENC  =       693.29126167
  PAW double counting   =     26634.84132827   -28546.63490259
  entropy T*S    EENTRO =        -0.01372053
  eigenvalues    EBANDS =      -455.56843032
  atomic energy  EATOM  =     30254.35235659
  Solvation contrib.  Ediel  =         0.00000000
  ---------------------------------------------------
  free energy    TOTEN  =       -11.13622279 eV

  energy without entropy =      -11.12250226  energy(sigma->0) =      -11.13279266


--------------------------------------------------------------------------------------------------------




----------------------------------------- Iteration    1(   3)  ---------------------------------------


     EDDAV:  cpu time   35.46: real time   35.51
       DOS:  cpu time    0.00: real time    0.00
    --------------------------------------------
      LOOP:  cpu time   35.46: real time   35.51

 eigenvalue-minimisations  :  6128
 total energy-change (2. order) :-0.3080704E+03  (-0.2702211E+03)
 number of electron     350.0000000 magnetization      58.6800000
 augmentation part      350.0000000 magnetization      58.6800000

 Free energy of the ion-electron system (eV)
  ---------------------------------------------------
  alpha Z        PSCENC =       535.95746614
  Ewald energy   TEWEN  =    167131.68601729
  -Hartree energ DENC   =   -196259.04759929
  -exchange      EXHF   =         0.00000000
  -V(xc)+E(xc)   XCENC  =       693.29126167
  PAW double counting   =     26634.84132827   -28546.63490259
  entropy T*S    EENTRO =         0.11102935
  eigenvalues    EBANDS =      -763.76359459
  atomic energy  EATOM  =     30254.35235659
  Solvation contrib.  Ediel  =         0.00000000
  ---------------------------------------------------
  free energy    TOTEN  =      -319.20663718 eV

  energy without entropy =     -319.31766653  energy(sigma->0) =     -319.23439452


--------------------------------------------------------------------------------------------------------




----------------------------------------- Iteration    1(   4)  ---------------------------------------


     EDDAV:  cpu time   33.28: real time   33.32
       DOS:  cpu time    0.00: real time    0.00
    --------------------------------------------
      LOOP:  cpu time   33.28: real time   33.32

 eigenvalue-minimisations  :  5664
 total energy-change (2. order) :-0.2565034E+02  (-0.2490945E+02)
 number of electron     350.0000000 magnetization      58.6800000
 augmentation part      350.0000000 magnetization      58.6800000

 Free energy of the ion-electron system (eV)
  ---------------------------------------------------
  alpha Z        PSCENC =       535.95746614
  Ewald energy   TEWEN  =    167131.68601729
  -Hartree energ DENC   =   -196259.04759929
  -exchange      EXHF   =         0.00000000
  -V(xc)+E(xc)   XCENC  =       693.29126167
  PAW double counting   =     26634.84132827   -28546.63490259
  entropy T*S    EENTRO =         0.11867313
  eigenvalues    EBANDS =      -789.42158114
  atomic energy  EATOM  =     30254.35235659
  Solvation contrib.  Ediel  =         0.00000000
  ---------------------------------------------------
  free energy    TOTEN  =      -344.85697995 eV

  energy without entropy =     -344.97565308  energy(sigma->0) =     -344.88664823


--------------------------------------------------------------------------------------------------------




----------------------------------------- Iteration    1(   5)  ---------------------------------------


     EDDAV:  cpu time   36.20: real time   36.25
       DOS:  cpu time    0.00: real time    0.00
    CHARGE:  cpu time    1.37: real time    1.38
    MIXING:  cpu time    0.01: real time    0.01
    --------------------------------------------
      LOOP:  cpu time   37.58: real time   37.63

 eigenvalue-minimisations  :  6200
 total energy-change (2. order) :-0.8837994E+00  (-0.8795151E+00)
 number of electron     349.9998732 magnetization      58.3049336
 augmentation part      166.5590333 magnetization      46.3461464

 Broyden mixing:
  rms(total) = 0.64426E+01    rms(broyden)= 0.64422E+01
  rms(prec ) = 0.67019E+01
  weight for this iteration     100.00

 Free energy of the ion-electron system (eV)
  ---------------------------------------------------
  alpha Z        PSCENC =       535.95746614
  Ewald energy   TEWEN  =    167131.68601729
  -Hartree energ DENC   =   -196259.04759929
  -exchange      EXHF   =         0.00000000
  -V(xc)+E(xc)   XCENC  =       693.29126167
  PAW double counting   =     26634.84132827   -28546.63490259
  entropy T*S    EENTRO =         0.11848896
  eigenvalues    EBANDS =      -790.30519635
  atomic energy  EATOM  =     30254.35235659
  Solvation contrib.  Ediel  =         0.00000000
  ---------------------------------------------------
  free energy    TOTEN  =      -345.74077932 eV

  energy without entropy =     -345.85926828  energy(sigma->0) =     -345.77040156


--------------------------------------------------------------------------------------------------------




----------------------------------------- Iteration    1(   6)  ---------------------------------------


    POTLOK:  cpu time    0.37: real time    0.37
    SETDIJ:  cpu time    0.05: real time    0.05
     EDDAV:  cpu time   35.20: real time   35.25
       DOS:  cpu time    0.00: real time    0.00
    CHARGE:  cpu time    1.26: real time    1.26
    MIXING:  cpu time    0.01: real time    0.01
    --------------------------------------------
      LOOP:  cpu time   36.89: real time   36.94

 eigenvalue-minimisations  :  5968
 total energy-change (2. order) :-0.6133559E+02  (-0.3819709E+02)
 number of electron     349.9998078 magnetization      57.7638094
 augmentation part      190.3356332 magnetization      51.4205601

 Broyden mixing:
  rms(total) = 0.12628E+02    rms(broyden)= 0.12628E+02
  rms(prec ) = 0.14035E+02
  weight for this iteration     100.00

 eigenvalues of (default mixing * dielectric matrix)
  average eigenvalue GAMMA=   0.2370
  0.2370

 Free energy of the ion-electron system (eV)
  ---------------------------------------------------
  alpha Z        PSCENC =       535.95746614
  Ewald energy   TEWEN  =    167131.68601729
  -Hartree energ DENC   =   -195856.85095716
  -exchange      EXHF   =         0.00000000
  -V(xc)+E(xc)   XCENC  =       667.75704348
  PAW double counting   =     29432.37066404   -31155.59666679
  entropy T*S    EENTRO =         0.00583644
  eigenvalues    EBANDS =     -1416.75812555
  atomic energy  EATOM  =     30254.35235659
  Solvation contrib.  Ediel  =         0.00000000
  ---------------------------------------------------
  free energy    TOTEN  =      -407.07636552 eV

  energy without entropy =     -407.08220196  energy(sigma->0) =     -407.07782463


--------------------------------------------------------------------------------------------------------




----------------------------------------- Iteration    1(   7)  ---------------------------------------


    POTLOK:  cpu time    0.38: real time    0.37
    SETDIJ:  cpu time    0.05: real time    0.05
     EDDAV:  cpu time   30.88: real time   30.91
       DOS:  cpu time    0.00: real time    0.00
    CHARGE:  cpu time    1.32: real time    1.32
    MIXING:  cpu time    0.01: real time    0.01
    --------------------------------------------
      LOOP:  cpu time   32.64: real time   32.67

 eigenvalue-minimisations  :  5320
 total energy-change (2. order) : 0.4278207E+02  (-0.2450367E+02)
 number of electron     349.9998696 magnetization      56.8337501
 augmentation part      195.3766432 magnetization      47.5711174

 Broyden mixing:
  rms(total) = 0.97875E+01    rms(broyden)= 0.97871E+01
  rms(prec ) = 0.11348E+02
  weight for this iteration     100.00

 eigenvalues of (default mixing * dielectric matrix)
  average eigenvalue GAMMA=   0.3336
  0.5364  0.1308

 Free energy of the ion-electron system (eV)
  ---------------------------------------------------
  alpha Z        PSCENC =       535.95746614
  Ewald energy   TEWEN  =    167131.68601729
  -Hartree energ DENC   =   -195620.81160401
  -exchange      EXHF   =         0.00000000
  -V(xc)+E(xc)   XCENC  =       666.81430581
  PAW double counting   =     29989.34813976   -31743.12741043
  entropy T*S    EENTRO =         0.01080846
  eigenvalues    EBANDS =     -1578.52437312
  atomic energy  EATOM  =     30254.35235659
  Solvation contrib.  Ediel  =         0.00000000
  ---------------------------------------------------
  free energy    TOTEN  =      -364.29429350 eV

  energy without entropy =     -364.30510196  energy(sigma->0) =     -364.29699562


--------------------------------------------------------------------------------------------------------




----------------------------------------- Iteration    1(   8)  ---------------------------------------


    POTLOK:  cpu time    0.36: real time    0.36
    SETDIJ:  cpu time    0.05: real time    0.05
     EDDAV:  cpu time   37.31: real time   37.36
       DOS:  cpu time    0.00: real time    0.00
    CHARGE:  cpu time    1.26: real time    1.26
    MIXING:  cpu time    0.01: real time    0.01
    --------------------------------------------
      LOOP:  cpu time   39.00: real time   39.04

 eigenvalue-minimisations  :  6616
 total energy-change (2. order) : 0.6789368E+01  (-0.1031894E+02)
 number of electron     349.9998311 magnetization      56.5336813
 augmentation part      188.7447505 magnetization      47.7923648

 Broyden mixing:
  rms(total) = 0.91298E+01    rms(broyden)= 0.91296E+01
  rms(prec ) = 0.12180E+02
  weight for this iteration     100.00

 eigenvalues of (default mixing * dielectric matrix)
  average eigenvalue GAMMA=   0.2909
  0.5266  0.2297  0.1165

 Free energy of the ion-electron system (eV)
  ---------------------------------------------------
  alpha Z        PSCENC =       535.95746614
  Ewald energy   TEWEN  =    167131.68601729
  -Hartree energ DENC   =   -196072.43006674
  -exchange      EXHF   =         0.00000000
  -V(xc)+E(xc)   XCENC  =       669.55090778
  PAW double counting   =     31318.06668345   -33157.94613602
  entropy T*S    EENTRO =        -0.00609363
  eigenvalues    EBANDS =     -1036.73606021
  atomic energy  EATOM  =     30254.35235659
  Solvation contrib.  Ediel  =         0.00000000
  ---------------------------------------------------
  free energy    TOTEN  =      -357.50492536 eV

  energy without entropy =     -357.49883173  energy(sigma->0) =     -357.50340195


--------------------------------------------------------------------------------------------------------




----------------------------------------- Iteration    1(   9)  ---------------------------------------


    POTLOK:  cpu time    0.36: real time    0.36
    SETDIJ:  cpu time    0.06: real time    0.05
     EDDAV:  cpu time   40.91: real time   40.95
       DOS:  cpu time    0.00: real time    0.00
    CHARGE:  cpu time    1.36: real time    1.36
    MIXING:  cpu time    0.01: real time    0.01
    --------------------------------------------
      LOOP:  cpu time   42.69: real time   42.74

 eigenvalue-minimisations  :  7432
 total energy-change (2. order) : 0.2339568E+02  (-0.7113264E+01)
 number of electron     349.9998405 magnetization      55.8527883
 augmentation part      186.2326571 magnetization      47.1911144

 Broyden mixing:
  rms(total) = 0.76737E+01    rms(broyden)= 0.76734E+01
  rms(prec ) = 0.10083E+02
  weight for this iteration     100.00

 eigenvalues of (default mixing * dielectric matrix)
  average eigenvalue GAMMA=   0.3412
  0.5864  0.5864  0.1190  0.0730

 Free energy of the ion-electron system (eV)
  ---------------------------------------------------
  alpha Z        PSCENC =       535.95746614
  Ewald energy   TEWEN  =    167131.68601729
  -Hartree energ DENC   =   -196099.76009089
  -exchange      EXHF   =         0.00000000
  -V(xc)+E(xc)   XCENC  =       670.17321551
  PAW double counting   =     31581.89855524   -33436.00491856
  entropy T*S    EENTRO =        -0.01133392
  eigenvalues    EBANDS =      -972.40050827
  atomic energy  EATOM  =     30254.35235659
  Solvation contrib.  Ediel  =         0.00000000
  ---------------------------------------------------
  free energy    TOTEN  =      -334.10924088 eV

  energy without entropy =     -334.09790697  energy(sigma->0) =     -334.10640741


--------------------------------------------------------------------------------------------------------




----------------------------------------- Iteration    1(  10)  ---------------------------------------


    POTLOK:  cpu time    0.35: real time    0.35
    SETDIJ:  cpu time    0.05: real time    0.05
     EDDAV:  cpu time   33.12: real time   33.16
       DOS:  cpu time    0.00: real time    0.00
    CHARGE:  cpu time    1.32: real time    1.32
    MIXING:  cpu time    0.01: real time    0.01
    --------------------------------------------
      LOOP:  cpu time   34.86: real time   34.90

 eigenvalue-minimisations  :  5800
 total energy-change (2. order) :-0.3400718E+02  (-0.7833799E+01)
 number of electron     349.9998419 magnetization      54.5918627
 augmentation part      187.5345337 magnetization      47.3224243

 Broyden mixing:
  rms(total) = 0.10902E+02    rms(broyden)= 0.10901E+02
  rms(prec ) = 0.12641E+02
  weight for this iteration     100.00

 eigenvalues of (default mixing * dielectric matrix)
  average eigenvalue GAMMA=   0.3721
  0.7835  0.7835  0.1138  0.1138  0.0660

 Free energy of the ion-electron system (eV)
  ---------------------------------------------------
  alpha Z        PSCENC =       535.95746614
  Ewald energy   TEWEN  =    167131.68601729
  -Hartree energ DENC   =   -196091.76305162
  -exchange      EXHF   =         0.00000000
  -V(xc)+E(xc)   XCENC  =       670.82706628
  PAW double counting   =     32004.24181157   -33874.22361373
  entropy T*S    EENTRO =        -0.00371752
  eigenvalues    EBANDS =      -999.19075848
  atomic energy  EATOM  =     30254.35235659
  Solvation contrib.  Ediel  =         0.00000000
  ---------------------------------------------------
  free energy    TOTEN  =      -368.11642349 eV

  energy without entropy =     -368.11270597  energy(sigma->0) =     -368.11549411


--------------------------------------------------------------------------------------------------------




----------------------------------------- Iteration    1(  11)  ---------------------------------------


    POTLOK:  cpu time    0.35: real time    0.36
    SETDIJ:  cpu time    0.05: real time    0.05
     EDDAV:  cpu time   33.48: real time   33.52
       DOS:  cpu time    0.00: real time    0.00
    CHARGE:  cpu time    1.31: real time    1.31
    MIXING:  cpu time    0.01: real time    0.01
    --------------------------------------------
      LOOP:  cpu time   35.20: real time   35.25

 eigenvalue-minimisations  :  5760
 total energy-change (2. order) : 0.5867125E+02  (-0.5563983E+01)
 number of electron     349.9998632 magnetization      54.3874348
 augmentation part      186.5398247 magnetization      42.1027610

 Broyden mixing:
  rms(total) = 0.59096E+01    rms(broyden)= 0.59093E+01
  rms(prec ) = 0.65957E+01
  weight for this iteration     100.00

 eigenvalues of (default mixing * dielectric matrix)
  average eigenvalue GAMMA=   0.3420
  0.7872  0.7872  0.1640  0.1255  0.1255  0.0628

 Free energy of the ion-electron system (eV)
  ---------------------------------------------------
  alpha Z        PSCENC =       535.95746614
  Ewald energy   TEWEN  =    167131.68601729
  -Hartree energ DENC   =   -196070.86219469
  -exchange      EXHF   =         0.00000000
  -V(xc)+E(xc)   XCENC  =       673.19848509
  PAW double counting   =     32675.78238484   -34572.16958792
  entropy T*S    EENTRO =        -0.01116360
  eigenvalues    EBANDS =      -937.37893279
  atomic energy  EATOM  =     30254.35235659
  Solvation contrib.  Ediel  =         0.00000000
  ---------------------------------------------------
  free energy    TOTEN  =      -309.44516906 eV

  energy without entropy =     -309.43400546  energy(sigma->0) =     -309.44237816


--------------------------------------------------------------------------------------------------------




----------------------------------------- Iteration    1(  12)  ---------------------------------------


    POTLOK:  cpu time    0.35: real time    0.35
    SETDIJ:  cpu time    0.05: real time    0.05
     EDDAV:  cpu time   30.97: real time   31.00
       DOS:  cpu time    0.00: real time    0.00
    CHARGE:  cpu time    1.30: real time    1.31
    MIXING:  cpu time    0.01: real time    0.01
    --------------------------------------------
      LOOP:  cpu time   32.69: real time   32.73

 eigenvalue-minimisations  :  5176
 total energy-change (2. order) : 0.8874615E+01  (-0.2996797E+01)
 number of electron     349.9998590 magnetization      54.2683548
 augmentation part      185.9645949 magnetization      41.9773552

 Broyden mixing:
  rms(total) = 0.42456E+01    rms(broyden)= 0.42455E+01
  rms(prec ) = 0.46524E+01
  weight for this iteration     100.00

 eigenvalues of (default mixing * dielectric matrix)
  average eigenvalue GAMMA=   0.3251
  1.0685  0.4163  0.3460  0.1372  0.1372  0.1062  0.0639

 Free energy of the ion-electron system (eV)
  ---------------------------------------------------
  alpha Z        PSCENC =       535.95746614
  Ewald energy   TEWEN  =    167131.68601729
  -Hartree energ DENC   =   -196095.14176710
  -exchange      EXHF   =         0.00000000
  -V(xc)+E(xc)   XCENC  =       673.85559349
  PAW double counting   =     32867.07509150   -34768.58671043
  entropy T*S    EENTRO =        -0.01712910
  eigenvalues    EBANDS =      -899.75147238
  atomic energy  EATOM  =     30254.35235659
  Solvation contrib.  Ediel  =         0.00000000
  ---------------------------------------------------
  free energy    TOTEN  =      -300.57055401 eV

  energy without entropy =     -300.55342491  energy(sigma->0) =     -300.56627174


--------------------------------------------------------------------------------------------------------




----------------------------------------- Iteration    1(  13)  ---------------------------------------


    POTLOK:  cpu time    0.40: real time    0.40
    SETDIJ:  cpu time    0.05: real time    0.05
     EDDAV:  cpu time   30.88: real time   30.92
       DOS:  cpu time    0.00: real time    0.00
    CHARGE:  cpu time    1.30: real time    1.30
    MIXING:  cpu time    0.01: real time    0.01
    --------------------------------------------
      LOOP:  cpu time   32.64: real time   32.68

 eigenvalue-minimisations  :  5240
 total energy-change (2. order) : 0.2707106E+01  (-0.1449794E+01)
 number of electron     349.9998530 magnetization      54.3263832
 augmentation part      185.3850948 magnetization      42.6706342

 Broyden mixing:
  rms(total) = 0.34479E+01    rms(broyden)= 0.34477E+01
  rms(prec ) = 0.39225E+01
  weight for this iteration     100.00

 eigenvalues of (default mixing * dielectric matrix)
  average eigenvalue GAMMA=   0.3249
  1.1382  0.3511  0.3511  0.3474  0.1204  0.1204  0.0631  0.1075

 Free energy of the ion-electron system (eV)
  ---------------------------------------------------
  alpha Z        PSCENC =       535.95746614
  Ewald energy   TEWEN  =    167131.68601729
  -Hartree energ DENC   =   -196152.40660055
  -exchange      EXHF   =         0.00000000
  -V(xc)+E(xc)   XCENC  =       674.02935369
  PAW double counting   =     33127.68706405   -35034.30700444
  entropy T*S    EENTRO =         0.04370788
  eigenvalues    EBANDS =      -834.90580847
  atomic energy  EATOM  =     30254.35235659
  Solvation contrib.  Ediel  =         0.00000000
  ---------------------------------------------------
  free energy    TOTEN  =      -297.86344782 eV

  energy without entropy =     -297.90715570  energy(sigma->0) =     -297.87437479


--------------------------------------------------------------------------------------------------------




----------------------------------------- Iteration    1(  14)  ---------------------------------------


    POTLOK:  cpu time    0.36: real time    0.36
    SETDIJ:  cpu time    0.05: real time    0.06
     EDDAV:  cpu time   30.59: real time   30.63
       DOS:  cpu time    0.00: real time    0.00
    CHARGE:  cpu time    1.33: real time    1.33
    MIXING:  cpu time    0.01: real time    0.01
    --------------------------------------------
      LOOP:  cpu time   32.34: real time   32.39

 eigenvalue-minimisations  :  5264
 total energy-change (2. order) : 0.4801658E-01  (-0.9998396E+00)
 number of electron     349.9998498 magnetization      54.4086277
 augmentation part      185.1620071 magnetization      43.3426979

 Broyden mixing:
  rms(total) = 0.25817E+01    rms(broyden)= 0.25815E+01
  rms(prec ) = 0.27958E+01
  weight for this iteration     100.00

 eigenvalues of (default mixing * dielectric matrix)
  average eigenvalue GAMMA=   0.3429
  1.2107  0.4525  0.4525  0.4292  0.0632  0.1251  0.1251  0.1137  0.1137

 Free energy of the ion-electron system (eV)
  ---------------------------------------------------
  alpha Z        PSCENC =       535.95746614
  Ewald energy   TEWEN  =    167131.68601729
  -Hartree energ DENC   =   -196181.24689356
  -exchange      EXHF   =         0.00000000
  -V(xc)+E(xc)   XCENC  =       674.59294755
  PAW double counting   =     33221.77561940   -35130.10420436
  entropy T*S    EENTRO =        -0.00979790
  eigenvalues    EBANDS =      -804.81894239
  atomic energy  EATOM  =     30254.35235659
  Solvation contrib.  Ediel  =         0.00000000
  ---------------------------------------------------
  free energy    TOTEN  =      -297.81543124 eV

  energy without entropy =     -297.80563333  energy(sigma->0) =     -297.81298176


--------------------------------------------------------------------------------------------------------




----------------------------------------- Iteration    1(  15)  ---------------------------------------


    POTLOK:  cpu time    0.36: real time    0.36
    SETDIJ:  cpu time    0.05: real time    0.05
     EDDAV:  cpu time   30.65: real time   30.69
       DOS:  cpu time    0.00: real time    0.00
    CHARGE:  cpu time    1.29: real time    1.29
    MIXING:  cpu time    0.01: real time    0.01
    --------------------------------------------
      LOOP:  cpu time   32.36: real time   32.40

 eigenvalue-minimisations  :  5216
 total energy-change (2. order) :-0.2227300E+00  (-0.5817871E+00)
 number of electron     349.9998523 magnetization      54.4551847
 augmentation part      185.0549683 magnetization      43.9561137

 Broyden mixing:
  rms(total) = 0.18549E+01    rms(broyden)= 0.18548E+01
  rms(prec ) = 0.19543E+01
  weight for this iteration     100.00

 eigenvalues of (default mixing * dielectric matrix)
  average eigenvalue GAMMA=   0.3373
  1.2408  0.4944  0.4944  0.4202  0.1678  0.0632  0.1292  0.1292  0.1189  0.1147

 Free energy of the ion-electron system (eV)
  ---------------------------------------------------
  alpha Z        PSCENC =       535.95746614
  Ewald energy   TEWEN  =    167131.68601729
  -Hartree energ DENC   =   -196186.18670621
  -exchange      EXHF   =         0.00000000
  -V(xc)+E(xc)   XCENC  =       675.18157747
  PAW double counting   =     33334.82088293   -35244.50228316
  entropy T*S    EENTRO =         0.01262817
  eigenvalues    EBANDS =      -799.36010046
  atomic energy  EATOM  =     30254.35235659
  Solvation contrib.  Ediel  =         0.00000000
  ---------------------------------------------------
  free energy    TOTEN  =      -298.03816124 eV

  energy without entropy =     -298.05078941  energy(sigma->0) =     -298.04131828


--------------------------------------------------------------------------------------------------------




----------------------------------------- Iteration    1(  16)  ---------------------------------------


    POTLOK:  cpu time    0.36: real time    0.36
    SETDIJ:  cpu time    0.05: real time    0.05
     EDDAV:  cpu time   31.50: real time   31.54
       DOS:  cpu time    0.00: real time    0.00
    CHARGE:  cpu time    1.60: real time    1.60
    MIXING:  cpu time    0.02: real time    0.02
    --------------------------------------------
      LOOP:  cpu time   33.54: real time   33.57

 eigenvalue-minimisations  :  5272
 total energy-change (2. order) :-0.5020687E+00  (-0.2553850E+00)
 number of electron     349.9998543 magnetization      54.5352549
 augmentation part      184.9270072 magnetization      44.7872167

 Broyden mixing:
  rms(total) = 0.17184E+01    rms(broyden)= 0.17184E+01
  rms(prec ) = 0.18404E+01
  weight for this iteration     100.00

 eigenvalues of (default mixing * dielectric matrix)
  average eigenvalue GAMMA=   0.3844
  1.3751  0.6701  0.6701  0.4209  0.4209  0.0632  0.1359  0.1359  0.1131  0.1131
  0.1096

 Free energy of the ion-electron system (eV)
  ---------------------------------------------------
  alpha Z        PSCENC =       535.95746614
  Ewald energy   TEWEN  =    167131.68601729
  -Hartree energ DENC   =   -196182.67534805
  -exchange      EXHF   =         0.00000000
  -V(xc)+E(xc)   XCENC  =       675.26695752
  PAW double counting   =     33391.92458212   -35301.69002748
  entropy T*S    EENTRO =        -0.02670368
  eigenvalues    EBANDS =      -803.33553041
  atomic energy  EATOM  =     30254.35235659
  Solvation contrib.  Ediel  =         0.00000000
  ---------------------------------------------------
  free energy    TOTEN  =      -298.54022997 eV

  energy without entropy =     -298.51352629  energy(sigma->0) =     -298.53355405


--------------------------------------------------------------------------------------------------------




----------------------------------------- Iteration    1(  17)  ---------------------------------------


    POTLOK:  cpu time    0.42: real time    0.42
    SETDIJ:  cpu time    0.07: real time    0.07
     EDDAV:  cpu time   32.76: real time   32.79
       DOS:  cpu time    0.00: real time    0.00
    CHARGE:  cpu time    1.33: real time    1.33
    MIXING:  cpu time    0.01: real time    0.01
    --------------------------------------------
      LOOP:  cpu time   34.59: real time   34.63

 eigenvalue-minimisations  :  5312
 total energy-change (2. order) :-0.2407315E+01  (-0.2630913E+00)
 number of electron     349.9998563 magnetization      54.5994517
 augmentation part      185.4087090 magnetization      46.0036795

 Broyden mixing:
  rms(total) = 0.18043E+01    rms(broyden)= 0.18042E+01
  rms(prec ) = 0.19486E+01
  weight for this iteration     100.00

 eigenvalues of (default mixing * dielectric matrix)
  average eigenvalue GAMMA=   0.3838
  1.3959  0.7433  0.7433  0.3839  0.3839  0.2837  0.0632  0.1225  0.1225  0.1338
  0.1149  0.1149

 Free energy of the ion-electron system (eV)
  ---------------------------------------------------
  alpha Z        PSCENC =       535.95746614
  Ewald energy   TEWEN  =    167131.68601729
  -Hartree energ DENC   =   -196185.96576710
  -exchange      EXHF   =         0.00000000
  -V(xc)+E(xc)   XCENC  =       675.27601538
  PAW double counting   =     33618.66398727   -35527.62134259
  entropy T*S    EENTRO =        -0.00003155
  eigenvalues    EBANDS =      -803.29624591
  atomic energy  EATOM  =     30254.35235659
  Solvation contrib.  Ediel  =         0.00000000
  ---------------------------------------------------
  free energy    TOTEN  =      -300.94754448 eV

  energy without entropy =     -300.94751293  energy(sigma->0) =     -300.94753660


--------------------------------------------------------------------------------------------------------




----------------------------------------- Iteration    1(  18)  ---------------------------------------


    POTLOK:  cpu time    0.36: real time    0.35
    SETDIJ:  cpu time    0.05: real time    0.05
     EDDAV:  cpu time   30.15: real time   30.19
       DOS:  cpu time    0.00: real time    0.00
    CHARGE:  cpu time    1.35: real time    1.35
    MIXING:  cpu time    0.02: real time    0.02
    --------------------------------------------
      LOOP:  cpu time   31.93: real time   31.96

 eigenvalue-minimisations  :  5176
 total energy-change (2. order) :-0.3092843E+00  (-0.2044836E+00)
 number of electron     349.9998536 magnetization      54.8982667
 augmentation part      185.5915463 magnetization      46.7776262

 Broyden mixing:
  rms(total) = 0.16836E+01    rms(broyden)= 0.16835E+01
  rms(prec ) = 0.18217E+01
  weight for this iteration     100.00

 eigenvalues of (default mixing * dielectric matrix)
  average eigenvalue GAMMA=   0.4298
  1.4538  0.9419  0.9419  0.5249  0.4629  0.4629  0.0632  0.1317  0.1317  0.1333
  0.1147  0.1147  0.1093

 Free energy of the ion-electron system (eV)
  ---------------------------------------------------
  alpha Z        PSCENC =       535.95746614
  Ewald energy   TEWEN  =    167131.68601729
  -Hartree energ DENC   =   -196190.87643543
  -exchange      EXHF   =         0.00000000
  -V(xc)+E(xc)   XCENC  =       675.62789904
  PAW double counting   =     33675.51362269   -35583.93042384
  entropy T*S    EENTRO =         0.00838816
  eigenvalues    EBANDS =      -799.59571939
  atomic energy  EATOM  =     30254.35235659
  Solvation contrib.  Ediel  =         0.00000000
  ---------------------------------------------------
  free energy    TOTEN  =      -301.25682876 eV

  energy without entropy =     -301.26521692  energy(sigma->0) =     -301.25892580


--------------------------------------------------------------------------------------------------------




----------------------------------------- Iteration    1(  19)  ---------------------------------------


    POTLOK:  cpu time    0.36: real time    0.36
    SETDIJ:  cpu time    0.05: real time    0.05
     EDDAV:  cpu time   32.07: real time   32.10
       DOS:  cpu time    0.00: real time    0.00
    CHARGE:  cpu time    1.32: real time    1.32
    MIXING:  cpu time    0.02: real time    0.02
    --------------------------------------------
      LOOP:  cpu time   33.81: real time   33.85

 eigenvalue-minimisations  :  5560
 total energy-change (2. order) :-0.1141639E+01  (-0.2554589E+00)
 number of electron     349.9998516 magnetization      55.0637447
 augmentation part      185.9836730 magnetization      48.1961630

 Broyden mixing:
  rms(total) = 0.12406E+01    rms(broyden)= 0.12405E+01
  rms(prec ) = 0.13370E+01
  weight for this iteration     100.00

 eigenvalues of (default mixing * dielectric matrix)
  average eigenvalue GAMMA=   0.4368
  1.4474  1.0207  1.0207  0.5423  0.4858  0.4858  0.3144  0.0632  0.1182  0.1182
  0.1343  0.1343  0.1147  0.1147

 Free energy of the ion-electron system (eV)
  ---------------------------------------------------
  alpha Z        PSCENC =       535.95746614
  Ewald energy   TEWEN  =    167131.68601729
  -Hartree energ DENC   =   -196210.91258130
  -exchange      EXHF   =         0.00000000
  -V(xc)+E(xc)   XCENC  =       676.35838927
  PAW double counting   =     33788.22409035   -35694.56193762
  entropy T*S    EENTRO =        -0.01768123
  eigenvalues    EBANDS =      -783.48458723
  atomic energy  EATOM  =     30254.35235659
  Solvation contrib.  Ediel  =         0.00000000
  ---------------------------------------------------
  free energy    TOTEN  =      -302.39846774 eV

  energy without entropy =     -302.38078651  energy(sigma->0) =     -302.39404743


--------------------------------------------------------------------------------------------------------




----------------------------------------- Iteration    1(  20)  ---------------------------------------


    POTLOK:  cpu time    0.36: real time    0.36
    SETDIJ:  cpu time    0.06: real time    0.06
     EDDAV:  cpu time   31.55: real time   31.59
       DOS:  cpu time    0.00: real time    0.00
    CHARGE:  cpu time    1.36: real time    1.36
    MIXING:  cpu time    0.02: real time    0.02
    --------------------------------------------
      LOOP:  cpu time   33.34: real time   33.38

 eigenvalue-minimisations  :  5456
 total energy-change (2. order) :-0.3819685E+00  (-0.1580380E+00)
 number of electron     349.9998508 magnetization      55.2709142
 augmentation part      186.1143229 magnetization      48.8807248

 Broyden mixing:
  rms(total) = 0.11430E+01    rms(broyden)= 0.11429E+01
[...]
     39     C          -0.136         -0.120          0.832
     40     O          -0.170         -0.131          1.011
     41     H           0.181          0.126          0.679
     42     H           0.070          0.049          0.773
     43     H           0.053          0.043          0.728
     44     H           0.048          0.034          0.821
     45     H          -0.080         -0.064          0.602
     46     H           0.057          0.038          0.796
     47     H           0.053          0.042          0.732
     48     H           0.029          0.015          0.801

  dDsC method for vdW energy calculation
  ---------------------------------------------------------------------------------------------

  Parameters of vdW forcefield:
            C6dDsC            XDM            ALPHAts        RELVOL
            (au)              (au)            (au)                
   ---------------------------------------------------------------
   Co        435.183         10.233         50.822          1.016
   Co        449.284         10.321         52.024          1.040
   Co        434.661         10.225         50.800          1.016
   Co        424.429         10.167         49.887          0.998
   Co        429.652         10.209         50.296          1.006
   Co        419.930         10.140         49.489          0.990
   Co        430.612         10.202         50.443          1.009
   Co        431.998         10.212         50.554          1.011
   Co        432.855         10.215         50.638          1.013
   Co        291.940          7.644         45.640          0.913
   Co        287.140          7.641         44.909          0.898
   Co        284.484          7.630         44.559          0.891
   Co        287.844          7.646         44.989          0.900
   Co        288.218          7.644         45.059          0.901
   Co        289.601          7.649         45.248          0.905
   Co        287.809          7.639         45.027          0.901
   Co        287.708          7.649         44.951          0.899
   Co        288.244          7.636         45.108          0.902
   Co        282.965          7.560         44.731          0.895
   Co        286.837          7.593         45.144          0.903
   Co        279.962          7.536         44.395          0.888
   Co        284.875          7.567         44.993          0.900
   Co        282.214          7.587         44.454          0.889
   Co        282.260          7.570         44.558          0.891
   Co        282.683          7.554         44.724          0.894
   Co        283.658          7.540         44.959          0.899
   Co        283.509          7.546         44.900          0.898
   Co        424.039         10.072         50.312          1.006
   Co        385.882          9.435         48.875          0.978
   Co        412.480          9.901         49.786          0.996
   Co        359.274          9.169         46.829          0.937
   Co        336.640          8.688         46.308          0.926
   Co        431.036         10.185         50.577          1.012
   Co        434.874         10.238         50.763          1.015
   Co        388.319          9.555         48.568          0.971
   Co        408.801          9.931         49.196          0.984
   C          31.997          4.758          8.037          0.670
   C          45.896          5.531          9.917          0.826
   C          46.430          5.557          9.986          0.832
   O          27.592          6.038          5.461          1.011
   H           5.271          2.063          3.054          0.679
   H           5.956          2.046          3.479          0.773
   H           4.812          1.756          3.275          0.728
   H           7.118          2.303          3.694          0.821
   H           4.429          1.952          2.711          0.602
   H           6.645          2.217          3.583          0.796
   H           4.886          1.773          3.293          0.732
   H           7.147          2.369          3.605          0.801

  IVDW =   4
  VDW_RADIUS =    50.000 A
  VDW_S6 aka ATT0 =    13.960
  VDW_SR aka BTT0 =     1.320
  LVDW_ONECELL = F F F

  Number of pair interactions contributing to vdW energy:  515136
  Edisp (eV):   -9.05917
    FORVDW:  cpu time   18.04: real time   18.06

  FORCE on cell =-STRESS in cart. coord.  units (eV):
  Direction    XX          YY          ZZ          XY          YZ          ZX
  --------------------------------------------------------------------------------------
  Alpha Z   535.95747   535.95747   535.95747
  Ewald  185365.73312185418.02717************    42.89553   -51.62720   129.11151
  Hartree192508.94921192540.44015************    16.27359   -28.70466    85.80636
  E(xc)   -1760.47366 -1760.42200 -1762.43939     0.10270     0.02934     0.10841
  Local  ************************385109.38842   -51.77173    78.16714  -212.62963
  n-local  -242.17095  -243.58999  -267.87198     0.19843    -0.11166     0.36199
  augment  5609.01425  5608.91437  5606.21264    -0.32164     0.73500    -0.07166
  Kinetic  3113.62799  3118.78316  3154.94268    -7.27112     1.36432    -2.52677
  Fock        0.00000     0.00000     0.00000     0.00000     0.00000     0.00000
  vdW       -11.00717   -11.15259    -7.75053    -0.02689     0.01427    -0.04627
  -------------------------------------------------------------------------------------
  Total     -20.01426   -18.75150   -11.22910     0.07888    -0.13345     0.11394
  in kB     -27.30147   -25.57893   -15.31762     0.10760    -0.18204     0.15543
  external pressure =      -22.73 kB  Pullay stress =        0.00 kB


 VOLUME and BASIS-vectors are now :
 -----------------------------------------------------------------------------
  energy-cutoff  :      400.00
  volume of cell :     1174.53
      direct lattice vectors                 reciprocal lattice vectors
     7.410000000  0.000000000  0.000000000     0.134952767  0.077914995  0.000000000
    -3.705000000  6.417250000  0.000000000     0.000000000  0.155829989  0.000000000
     0.000000000  0.000000000 24.700000000     0.000000000  0.000000000  0.040485830

  length of vectors
     7.410000000  7.410001522 24.700000000     0.155830021  0.155829989  0.040485830


 FORCES acting on ions
    electron-ion (+dipol)            ewald-force                    non-local-force                 convergence-correction
 -----------------------------------------------------------------------------------------------
   -.940E-01 -.301E+00 0.293E+04   0.697E-01 0.296E+00 -.293E+04   0.187E-01 0.125E-01 -.121E+01   -.362E-03 -.118E-02 0.336E-03
   0.749E-01 -.980E-01 0.293E+04   -.555E-01 0.120E+00 -.293E+04   -.145E-01 -.168E-02 -.116E+01   0.722E-03 0.179E-04 0.545E-03
   0.174E-01 -.181E+00 0.293E+04   -.134E-01 0.163E+00 -.293E+04   -.408E-02 0.810E-02 -.122E+01   -.363E-03 -.467E-04 0.274E-02
   -.117E+00 -.741E-01 0.293E+04   0.144E+00 0.968E-01 -.293E+04   -.152E-01 -.220E-01 -.117E+01   -.135E-02 0.984E-03 0.179E-02
   0.149E+00 -.883E-01 0.293E+04   -.157E+00 0.692E-01 -.293E+04   0.214E-01 0.210E-01 -.117E+01   0.121E-02 0.116E-02 0.338E-03
   -.372E-01 -.477E-04 0.293E+04   0.142E-01 -.107E-02 -.293E+04   -.189E-02 0.472E-02 -.119E+01   0.132E-03 0.255E-03 0.139E-02
   -.153E-02 0.312E+00 0.293E+04   -.188E-01 -.326E+00 -.293E+04   0.219E-01 0.101E-01 -.119E+01   0.918E-04 -.854E-06 0.349E-02
   0.165E+00 0.272E+00 0.293E+04   -.133E+00 -.242E+00 -.293E+04   -.239E-01 -.315E-01 -.119E+01   -.111E-03 -.406E-03 0.293E-02
   -.164E+00 0.169E+00 0.293E+04   0.152E+00 -.184E+00 -.293E+04   0.277E-02 0.111E-01 -.119E+01   0.196E-04 -.778E-03 0.211E-02
   -.572E+00 -.885E+00 0.114E+04   0.580E+00 0.894E+00 -.114E+04   0.176E-01 0.458E-02 -.456E+00   -.229E-02 -.290E-02 0.438E-02
   -.398E+00 -.121E+01 0.114E+04   0.402E+00 0.123E+01 -.114E+04   0.816E-03 0.107E-01 -.380E+00   0.835E-03 -.426E-02 0.512E-02
   0.113E+01 0.466E+00 0.114E+04   -.115E+01 -.470E+00 -.114E+04   -.194E-01 0.115E-01 -.388E+00   0.146E-02 -.279E-02 0.474E-02
   -.104E+01 -.321E+01 0.114E+04   0.104E+01 0.327E+01 -.114E+04   0.210E-01 -.294E-02 -.389E+00   -.178E-02 0.214E-02 0.393E-02
   0.156E+01 -.182E+01 0.114E+04   -.158E+01 0.185E+01 -.114E+04   -.114E-01 -.135E-01 -.350E+00   0.227E-02 0.146E-02 0.366E-02
   -.411E+00 -.299E+01 0.114E+04   0.419E+00 0.305E+01 -.114E+04   -.107E-01 -.819E-02 -.413E+00   -.495E-03 0.813E-03 0.361E-02
   -.131E+01 0.242E+01 0.114E+04   0.131E+01 -.247E+01 -.114E+04   0.215E-01 -.109E-02 -.541E+00   -.127E-03 0.150E-02 0.632E-02
   0.164E+01 0.337E+01 0.114E+04   -.166E+01 -.339E+01 -.114E+04   0.350E-03 -.347E-01 -.388E+00   -.325E-03 0.329E-02 0.552E-02
   -.343E+00 0.254E+01 0.114E+04   0.351E+00 -.257E+01 -.114E+04   -.192E-01 -.144E-01 -.448E+00   0.453E-03 0.741E-03 0.559E-02
   0.412E+01 0.127E+01 -.644E+03   -.409E+01 -.112E+01 0.644E+03   -.380E-01 -.146E+00 0.210E+00   -.621E-04 -.315E-02 0.640E-02
   -.471E+01 0.283E+01 -.645E+03   0.475E+01 -.257E+01 0.645E+03   -.362E-01 -.275E+00 0.173E+00   0.609E-03 -.270E-02 0.647E-02
   0.362E+00 -.639E+00 -.643E+03   -.423E+00 0.649E+00 0.643E+03   0.651E-01 -.542E-02 0.372E+00   -.550E-03 -.249E-02 0.427E-02
   0.462E+01 -.402E+01 -.657E+03   -.445E+01 0.394E+01 0.657E+03   -.168E+00 0.806E-01 0.290E+00   -.891E-03 0.562E-02 0.673E-02
   0.264E+01 -.470E+01 -.661E+03   -.253E+01 0.449E+01 0.662E+03   -.129E+00 0.207E+00 -.141E+00   0.659E-03 0.372E-02 0.759E-02
   -.718E+01 -.929E+00 -.656E+03   0.691E+01 0.758E+00 0.656E+03   0.274E+00 0.170E+00 0.464E-01   0.225E-03 0.402E-02 0.694E-02
   0.217E+01 0.171E+01 -.644E+03   -.219E+01 -.170E+01 0.644E+03   0.164E-01 -.530E-02 0.418E+00   -.173E-02 -.130E-02 0.594E-02
   0.821E+00 -.700E+00 -.635E+03   -.812E+00 0.681E+00 0.635E+03   -.531E-02 0.237E-01 0.538E+00   0.682E-03 -.130E-02 0.606E-02
   -.278E+01 0.725E+01 -.631E+03   0.278E+01 -.732E+01 0.631E+03   -.622E-02 0.747E-01 0.534E+00   0.104E-02 -.233E-02 0.737E-02
   0.221E+02 0.776E+01 -.249E+04   -.222E+02 -.779E+01 0.249E+04   0.482E-01 0.342E-01 0.924E+00   0.218E-03 -.366E-02 0.342E-02
   0.177E+02 0.641E+02 -.241E+04   -.184E+02 -.651E+02 0.241E+04   0.666E+00 0.972E+00 0.185E+01   0.853E-03 -.449E-02 0.233E-02
   -.434E+02 0.340E+02 -.249E+04   0.441E+02 -.346E+02 0.249E+04   -.688E+00 0.549E+00 0.160E+01   -.103E-02 -.346E-02 0.296E-02
   0.824E+02 -.196E+02 -.241E+04   -.832E+02 0.199E+02 0.240E+04   0.813E+00 -.331E+00 0.287E+01   0.139E-03 0.320E-02 0.335E-02
   -.656E+02 -.392E+02 -.240E+04   0.662E+02 0.407E+02 0.240E+04   -.634E+00 -.151E+01 0.214E+01   0.325E-03 0.253E-02 0.291E-02
   -.183E+02 -.789E+01 -.250E+04   0.184E+02 0.798E+01 0.249E+04   -.878E-01 -.865E-01 0.150E+01   -.500E-03 0.363E-02 0.377E-02
   0.125E+02 0.311E+01 -.251E+04   -.125E+02 -.305E+01 0.251E+04   0.107E-03 -.528E-01 0.137E+01   -.776E-03 0.108E-02 0.198E-02
   0.142E+02 -.499E+02 -.245E+04   -.144E+02 0.503E+02 0.245E+04   0.157E+00 -.369E+00 0.209E+01   -.267E-03 0.285E-03 0.237E-02
   -.258E+02 -.121E+02 -.248E+04   0.259E+02 0.121E+02 0.248E+04   -.142E+00 -.462E-01 0.150E+01   0.105E-02 0.351E-03 0.207E-02
   -.781E+02 0.744E+01 -.131E+04   0.854E+02 -.693E+01 0.131E+04   -.727E+01 -.523E+00 0.596E+00   0.115E-03 0.325E-03 -.175E-02
   -.547E+02 0.988E+02 -.132E+04   0.547E+02 -.992E+02 0.132E+04   -.156E-01 0.365E+00 -.288E+00   -.419E-04 0.121E-03 -.229E-02
   -.518E+02 -.118E+03 -.134E+04   0.519E+02 0.119E+03 0.134E+04   -.485E-01 -.111E+01 -.142E+00   0.306E-04 0.307E-04 -.234E-02
   0.218E+03 -.379E+02 -.206E+04   -.240E+03 0.730E+02 0.206E+04   0.214E+02 -.351E+02 -.381E+01   0.298E-03 0.481E-03 -.218E-02
   0.507E+02 0.836E+02 -.343E+03   -.535E+02 -.910E+02 0.343E+03   0.278E+01 0.743E+01 0.118E+00   0.277E-04 0.197E-04 -.344E-03
   -.627E+02 0.136E+02 -.320E+03   0.682E+02 -.138E+02 0.320E+03   -.553E+01 0.194E+00 -.228E+00   -.580E-04 0.109E-04 -.595E-03
   0.133E+02 0.489E+01 -.337E+03   -.152E+02 -.396E+01 0.342E+03   0.191E+01 -.944E+00 -.500E+01   0.139E-04 0.264E-04 -.678E-03
   0.962E+01 0.636E+02 -.316E+03   -.112E+02 -.686E+02 0.314E+03   0.162E+01 0.501E+01 0.163E+01   0.111E-04 -.254E-04 -.560E-03
   -.177E+02 0.319E+02 -.340E+03   0.179E+02 -.330E+02 0.341E+03   -.246E+00 0.114E+01 -.919E+00   0.108E-03 0.127E-03 -.156E-03
   -.610E+02 -.194E+02 -.328E+03   0.666E+02 0.201E+02 0.328E+03   -.552E+01 -.659E+00 0.409E+00   -.311E-04 0.427E-04 -.623E-03
   0.866E+01 -.237E+02 -.348E+03   -.101E+02 0.242E+02 0.353E+03   0.143E+01 -.506E+00 -.510E+01   0.160E-04 -.272E-04 -.696E-03
   0.164E+02 -.560E+02 -.322E+03   -.187E+02 0.602E+02 0.319E+03   0.231E+01 -.412E+01 0.267E+01   0.368E-04 -.107E-04 -.547E-03
 -----------------------------------------------------------------------------------------------
   -.130E+02 0.296E+02 0.638E+01   -.167E-12 -.711E-13 0.138E-10   0.129E+02 -.296E+02 -.623E+01   0.522E-03 0.663E-03 0.129E+00
 
 
 POSITION                                       TOTAL-FORCE (eV/Angst)
 -----------------------------------------------------------------------------------
      1.23500      0.71303      0.00000        -0.005344      0.004041      0.444016
      3.70500      0.71303      0.00000         0.006330      0.019217      0.460128
      6.17500      0.71303      0.00000         0.000096     -0.010807      0.447854
     -0.00000      2.85211      0.00000         0.010757      0.000231      0.451270
      2.47000      2.85211      0.00000         0.015318      0.001672      0.452983
      4.94000      2.85211      0.00000        -0.024016      0.002418      0.439395
      1.23500      4.99118      0.00000         0.002221     -0.005524      0.453891
      3.70500      4.99118      0.00000         0.008722     -0.003655      0.436923
     -1.23500      4.99118      0.00000        -0.008199     -0.005439      0.445095
      0.00000      0.00000      2.01675         0.023654      0.008522     -0.487245
      2.47000      0.00000      2.01675         0.006911      0.031581     -0.410337
      4.94000      0.00000      2.01675        -0.031244      0.003319     -0.446395
      1.23500      2.13908      2.01675         0.027505      0.052307     -0.414298
      3.70500      2.13908      2.01675        -0.028680      0.011117     -0.494792
      6.17500      2.13908      2.01675        -0.002103      0.055989     -0.376555
      0.00000      4.27816      2.01675         0.031294     -0.051867     -0.492005
      2.47000      4.27816      2.01675        -0.024393     -0.059115     -0.399820
      4.94000      4.27816      2.01675        -0.009752     -0.045841     -0.481966
      1.23134      0.73999      4.05833        -0.006302     -0.001389     -0.003297
      3.70497      0.73917      4.06024        -0.002869     -0.013770     -0.002206
      6.17053      0.72462      4.04601         0.003797      0.000299     -0.002125
      0.00609      2.85458      4.06368         0.003988      0.005452      0.006783
      2.47603      2.85096      4.08399        -0.010491      0.002764     -0.000091
      4.91980      2.85340      4.06323         0.006791      0.001064     -0.007211
      1.23102      5.00333      4.05272         0.001311      0.000189     -0.001949
      3.70725      5.00211      4.04497         0.004582      0.001323     -0.001955
     -1.23673      4.99394      4.03982        -0.003614      0.001576     -0.003124
      7.40281      0.00252      5.96767         0.000487     -0.001033      0.006492
     -1.23947      6.37791      5.95547        -0.002295      0.000266     -0.004773
      4.93867      0.00170      6.00150        -0.002972     -0.007672      0.003360
      1.22360      2.15755      6.06229         0.000929      0.000859     -0.000105
      3.70221      2.13999      6.12895        -0.000771      0.007114      0.001460
      6.16715      2.13892      5.98373         0.003284      0.004612     -0.004916
     -0.00786      4.28706      5.98541        -0.002028      0.005541      0.002900
      2.46999      4.31863      5.96868        -0.006481      0.001108     -0.002826
     -2.47041      4.29222      5.97195         0.002315     -0.005615      0.000923
      3.14973      1.92414      8.32465        -0.004017     -0.008894     -0.007586
      3.59882      0.82634      9.27550         0.008743     -0.007255      0.006416
      3.57453      3.28267      8.83526         0.010506      0.006590      0.004169
      1.70791      1.92876      8.22843         0.000376      0.004487     -0.000351
      1.39425      0.99342      8.21469         0.000181     -0.001640      0.001432
      4.69719      0.79889      9.31814        -0.006085     -0.002995     -0.002299
      3.20578      1.02706     10.28698         0.002135      0.000483     -0.004795
     -0.44949      6.25129      8.94146        -0.001212      0.002623     -0.000215
      3.72638      0.97867      7.17717        -0.001677      0.000721     -0.000828
      4.66355      3.40308      8.75865        -0.003074     -0.004485     -0.002982
      3.27776      3.37451      9.89901         0.004292     -0.000384     -0.004529
      3.09964      4.10603      8.27645         0.001095     -0.000106     -0.003916
 -----------------------------------------------------------------------------------
    total drift:                               -0.036988      0.076942      0.277653


--------------------------------------------------------------------------------------------------------



  FREE ENERGIE OF THE ION-ELECTRON SYSTEM (eV)
  ---------------------------------------------------
  free  energy   TOTEN  =      -312.32274661 eV

  energy  without entropy=     -312.31566635  energy(sigma->0) =     -312.32097655
 


--------------------------------------------------------------------------------------------------------


    POTLOK:  cpu time    0.41: real time    0.41


--------------------------------------------------------------------------------------------------------


 Dimer: Init Mode:
 Dimer: MODECAR found
 Dimer: -----------------
 Dimer: Itr    1 Rot    0

 Dimer: Central Point
 Dimer: F0      0.041703

 Dimer: Projection
 Dimer: N*F0  4.227555912343221E-003
 Dimer: F0sq  1.739125973859007E-003
 Dimer: Feffsq   1.787222899198813E-005
 
 stress matrix after NEB project (eV)
    -20.01426      0.07888      0.11394
      0.07888    -18.75150     -0.13345
      0.11394     -0.13345    -11.22910
  FORCES: max atom, RMS     0.014238    0.006019
  FORCE total and by dimension    0.041703    0.013770
  Stress total and by dimension   29.637068   20.014259
 OPT: skip step - force has converged


--------------------------------------------------------------------------------------------------------


  
 reached required accuracy - stopping structural energy minimisation
     LOOP+:  cpu time 2017.74: real time 2020.15
    4ORBIT:  cpu time    0.00: real time    0.00

 total amount of memory used by VASP on root node   182358. kBytes
========================================================================

   base      :      30000. kBytes
   nonlr-proj:       9794. kBytes
   fftplans  :       6203. kBytes
   grid      :      28885. kBytes
   one-center:       1492. kBytes
   wavefun   :     105984. kBytes
 
  
  
 General timing and accounting informations for this job:
 ========================================================
  
                  Total CPU time used (sec):     2024.800
                            User time (sec):     2023.040
                          System time (sec):        1.760
                         Elapsed time (sec):     2028.439
  
                   Maximum memory used (kb):      226188.
                   Average memory used (kb):           0.
  
                          Minor page faults:       229072
                          Major page faults:           75
                 Voluntary context switches:         1070
