 vasp.5.3.5 31Mar14 (build Jan 31 2018 16:04:57) complex                        
  
 executed on             LinuxIFC date 2018.12.29  16:37:53
 running on    8 total cores
 distrk:  each k-point on    8 cores,    1 groups
 distr:  one band on NCORES_PER_BAND=   1 cores,    8 groups


--------------------------------------------------------------------------------------------------------


 INCAR:
 POTCAR:    PAW_PBE Co 02Aug2007                  
 POTCAR:    PAW_PBE H 15Jun2001                   

 ----------------------------------------------------------------------------- 
|                                                                             |
|           W    W    AA    RRRRR   N    N  II  N    N   GGGG   !!!           |
|           W    W   A  A   R    R  NN   N  II  NN   N  G    G  !!!           |
|           W    W  A    A  R    R  N N  N  II  N N  N  G       !!!           |
|           W WW W  AAAAAA  RRRRR   N  N N  II  N  N N  G  GGG   !            |
|           WW  WW  A    A  R   R   N   NN  II  N   NN  G    G                |
|           W    W  A    A  R    R  N    N  II  N    N   GGGG   !!!           |
|                                                                             |
|      For optimal performance we recommend to set                            |
|        NCORE= 4 - approx SQRT( number of cores)                             |
|      NCORE specifies how many cores store one orbital (NPAR=cpu/NCORE).     |
|      This setting can  greatly improve the performance of VASP for DFT.     |
|      The default, NPAR=number of cores might be grossly inefficient         |
|      on modern multi-core architectures or massively parallel machines.     |
|      Do your own testing !!!!                                               |
|      Unfortunately you need to use the default for GW and RPA calculations. |
|      (for HF NCORE is supported but not extensively tested yet)             |
|                                                                             |
 ----------------------------------------------------------------------------- 

 POTCAR:    PAW_PBE Co 02Aug2007                  
   VRHFIN =Co: d8 s1                                                            
   LEXCH  = PE                                                                  
   EATOM  =   813.3670 eV,   59.7808 Ry                                         
                                                                                
   TITEL  = PAW_PBE Co 02Aug2007                                                
   LULTRA =        F    use ultrasoft PP ?                                      
   IUNSCR =        1    unscreen: 0-lin 1-nonlin 2-no                           
   RPACOR =    2.000    partial core radius                                     
   POMASS =   58.933; ZVAL   =    9.000    mass and valenz                      
   RCORE  =    2.300    outmost cutoff radius                                   
   RWIGS  =    2.460; RWIGS  =    1.302    wigner-seitz radius (au A)           
   ENMAX  =  267.968; ENMIN  =  200.976 eV                                      
   RCLOC  =    1.203    cutoff for local pot                                    
   LCOR   =        T    correct aug charges                                     
   LPAW   =        T    paw PP                                                  
   EAUG   =  477.818                                                            
   DEXC   =    0.000                                                            
   RMAX   =    2.360    core radius for proj-oper                               
   RAUG   =    1.300    factor for augmentation sphere                          
   RDEP   =    2.393    radius for radial grids                                 
   RDEPT  =    1.864    core radius for aug-charge                              
                                                                                
   Atomic configuration                                                         
    9 entries                                                                   
     n  l   j            E        occ.                                          
     1  0  0.50     -7587.6674   2.0000                                         
     2  0  0.50      -893.6084   2.0000                                         
     2  1  1.50      -764.5805   6.0000                                         
     3  0  0.50       -97.5973   2.0000                                         
     3  1  1.50       -60.9648   6.0000                                         
     3  2  2.50        -4.2382   8.0000                                         
     4  0  0.50        -4.3746   1.0000                                         
     4  1  1.50        -4.0817   0.0000                                         
     4  3  2.50        -1.3606   0.0000                                         
   Description                                                                  
     l       E           TYP  RCUT    TYP  RCUT                                 
     2     -4.2382362     23  2.300                                             
     2     -5.5988188     23  2.300                                             
     0     -4.3745797     23  2.300                                             
     0      5.7660125     23  2.300                                             
     1     -2.7211652     23  2.300                                             
     1     16.9860234     23  2.300                                             
  local pseudopotential read in
  partial core-charges read in
  partial kinetic energy density read in
  atomic valenz-charges read in
  non local Contribution for L=           2  read in
    real space projection operators read in
  non local Contribution for L=           2  read in
    real space projection operators read in
  non local Contribution for L=           0  read in
    real space projection operators read in
  non local Contribution for L=           0  read in
    real space projection operators read in
  non local Contribution for L=           1  read in
    real space projection operators read in
  non local Contribution for L=           1  read in
    real space projection operators read in
    PAW grid and wavefunctions read in
 
   number of l-projection  operators is LMAX  =           6
   number of lm-projection operators is LMMAX =          18
 
 POTCAR:    PAW_PBE H 15Jun2001                   
   VRHFIN =H: ultrasoft test                                                    
   LEXCH  = PE                                                                  
   EATOM  =    12.4884 eV,    0.9179 Ry                                         
                                                                                
   TITEL  = PAW_PBE H 15Jun2001                                                 
   LULTRA =        F    use ultrasoft PP ?                                      
   IUNSCR =        0    unscreen: 0-lin 1-nonlin 2-no                           
   RPACOR =    0.000    partial core radius                                     
   POMASS =    1.000; ZVAL   =    1.000    mass and valenz                      
   RCORE  =    1.100    outmost cutoff radius                                   
   RWIGS  =    0.700; RWIGS  =    0.370    wigner-seitz radius (au A)           
   ENMAX  =  250.000; ENMIN  =  200.000 eV                                      
   RCLOC  =    0.701    cutoff for local pot                                    
   LCOR   =        T    correct aug charges                                     
   LPAW   =        T    paw PP                                                  
   EAUG   =  400.000                                                            
   RMAX   =    1.123    core radius for proj-oper                               
   RAUG   =    1.200    factor for augmentation sphere                          
   RDEP   =    1.112    radius for radial grids                                 
   RDEPT  =    0.926    core radius for aug-charge                              
                                                                                
   Atomic configuration                                                         
    2 entries                                                                   
     n  l   j            E        occ.                                          
     1  0  0.50        -6.4927   1.0000                                         
     2  1  0.50        -3.4015   0.0000                                         
   Description                                                                  
     l       E           TYP  RCUT    TYP  RCUT                                 
     0     -6.4927494     23  1.100                                             
     0      6.8029130     23  1.100                                             
     1     -4.0817478     23  1.100                                             
  local pseudopotential read in
  atomic valenz-charges read in
  non local Contribution for L=           0  read in
    real space projection operators read in
  non local Contribution for L=           0  read in
    real space projection operators read in
  non local Contribution for L=           1  read in
    real space projection operators read in
    PAW grid and wavefunctions read in
 
   number of l-projection  operators is LMAX  =           3
   number of lm-projection operators is LMMAX =           5
 
 Optimization of the real space projectors (new method)

 maximal supplied QI-value         = 16.25
 optimisation between [QCUT,QGAM] = [ 10.24, 20.48] = [ 29.35,117.42] Ry 
 Optimized for a Real-space Cutoff    1.34 Angstroem

   l    n(q)    QCUT    max X(q) W(low)/X(q) W(high)/X(q)  e(spline) 
   2      7    10.239    65.824    0.41E-03    0.10E-02    0.11E-06
   2      7    10.239    61.429    0.41E-03    0.10E-02    0.11E-06
   0      8    10.239    56.174    0.42E-03    0.17E-03    0.96E-07
   0      8    10.239    31.263    0.38E-03    0.16E-03    0.87E-07
   1      8    10.239    19.828    0.20E-03    0.56E-03    0.13E-06
   1      8    10.239    15.139    0.15E-03    0.46E-03    0.11E-06
 Optimization of the real space projectors (new method)

 maximal supplied QI-value         = 34.20
 optimisation between [QCUT,QGAM] = [  9.92, 20.18] = [ 27.55,114.04] Ry 
 Optimized for a Real-space Cutoff    1.26 Angstroem

   l    n(q)    QCUT    max X(q) W(low)/X(q) W(high)/X(q)  e(spline) 
   0      8     9.919    19.460    0.50E-03    0.23E-03    0.29E-06
   0      8     9.919    12.209    0.48E-03    0.23E-03    0.28E-06
   1      7     9.919     4.655    0.17E-03    0.75E-03    0.30E-06
  PAW_PBE Co 02Aug2007                  :
 energy of atom  1       EATOM= -813.3670
 kinetic energy error for atom=    0.0093 (will be added to EATOM!!)
  PAW_PBE H 15Jun2001                   :
 energy of atom  2       EATOM=  -12.4884
 kinetic energy error for atom=    0.0098 (will be added to EATOM!!)
 
 
 POSCAR: Co H                                    
  positions in direct lattice
  velocities in cartesian coordinates
 exchange correlation table for  LEXCH =        8
   RHO(1)=    0.500       N(1)  =     2000
   RHO(2)=  100.500       N(2)  =     4000

 VTST: version 3.1, (03/28/14)

 CHAIN: initializing optimizer
 
 OPT: Using VASP Conjugate-Gradient optimizer
 CHAIN: Read ICHAIN            0
 
 POSCAR: Co H                                    
  positions in direct lattice
  velocities in cartesian coordinates
 


--------------------------------------------------------------------------------------------------------


 ion  position               nearest neighbor table
   1  0.222  0.111  0.000-   4 2.47   5 2.47  13 2.47   3 2.47   2 2.47  10 2.47  11 2.47   9 2.47
                             8 2.47
   2  0.556  0.111  0.000-   5 2.47   6 2.47  14 2.47   3 2.47   1 2.47  12 2.47  11 2.47   9 2.47
                             7 2.47
   3  0.889  0.111  0.000-   4 2.47   6 2.47  15 2.47   1 2.47   2 2.47  10 2.47  12 2.47   8 2.47
                             7 2.47
   4  0.222  0.444  0.000-   9 2.47   7 2.47   3 2.47   1 2.47   6 2.47   5 2.47  16 2.47  15 2.47
                            13 2.47
   5  0.556  0.444  0.000-   7 2.47   8 2.47   1 2.47   2 2.47   4 2.47   6 2.47  17 2.47  14 2.47
                            13 2.47
   6  0.889  0.444  0.000-   9 2.47   8 2.47   2 2.47   3 2.47   4 2.47   5 2.47  18 2.47  15 2.47
                            14 2.47
   7  0.556  0.778  0.000-   5 2.47   4 2.47  16 2.47  17 2.47   8 2.47   9 2.47  12 2.47   3 2.47
                             2 2.47
   8  0.889  0.778  0.000-   5 2.47   6 2.47  17 2.47  18 2.47   7 2.47   9 2.47  10 2.47   3 2.47
                             1 2.47
   9  0.222  0.778  0.000-   4 2.47   6 2.47  18 2.47  16 2.47   7 2.47   8 2.47  11 2.47   2 2.47
                             1 2.47
  10  0.000  0.000  0.082-  13 2.47  15 2.47  11 2.47  12 2.47  17 2.47  18 2.47   1 2.47   3 2.47
                             8 2.47  26 2.48  21 2.50  19 2.50
  11  0.333  0.000  0.082-  14 2.47  13 2.47  12 2.47  10 2.47  16 2.47  18 2.47   2 2.47   1 2.47
                             9 2.47  27 2.48  20 2.50  19 2.50
  12  0.667  0.000  0.082-  14 2.47  15 2.47  11 2.47  10 2.47  16 2.47  17 2.47   2 2.47   3 2.47
                             7 2.47  25 2.48  21 2.49  20 2.51
  13  0.333  0.333  0.082-  10 2.47  11 2.47   1 2.47  14 2.47  15 2.47  16 2.47  17 2.47   5 2.47
                             4 2.47  19 2.48  23 2.50  22 2.50
  14  0.667  0.333  0.082-  11 2.47  12 2.47   2 2.47  13 2.47  15 2.47  17 2.47  18 2.47   5 2.47
                             6 2.47  20 2.48  24 2.49  23 2.50
  15  1.000  0.333  0.082-  10 2.47  12 2.47   3 2.47  13 2.47  14 2.47  18 2.47  16 2.47   4 2.47
                             6 2.47  21 2.48  22 2.49  24 2.50
  16  0.333  0.667  0.082-   7 2.47   9 2.47  17 2.47  18 2.47  13 2.47  15 2.47   4 2.47  12 2.47
                            11 2.47  22 2.48  25 2.49  27 2.50
  17  0.667  0.667  0.082-   7 2.47   8 2.47  16 2.47  18 2.47  13 2.47  14 2.47   5 2.47  10 2.47
                            12 2.47  23 2.49  26 2.49  25 2.50
  18  1.000  0.667  0.082-   9 2.47   8 2.47  16 2.47  17 2.47  15 2.47  14 2.47   6 2.47  10 2.47
                            11 2.47  24 2.48  27 2.49  26 2.50
  19  0.223  0.114  0.165-  28 2.40  29 2.43  31 2.43  22 2.47  23 2.47  20 2.47  27 2.47  21 2.47
                            26 2.47  13 2.48  10 2.50  11 2.50
  20  0.556  0.114  0.165-  30 2.40  29 2.43  32 2.43  27 2.47  19 2.47  23 2.47  24 2.47  25 2.47
                            21 2.47  14 2.48  11 2.50  12 2.51
  21  0.889  0.114  0.164-  28 2.40  30 2.40  33 2.41  26 2.47  25 2.47  19 2.47  22 2.47  24 2.47
                            20 2.47  15 2.48  12 2.49  10 2.50
  22  0.223  0.447  0.164-  33 2.40  34 2.41  31 2.43  23 2.47  19 2.47  21 2.47  25 2.47  27 2.47
                            24 2.48  16 2.48  15 2.49  13 2.50
  23  0.556  0.447  0.165-  35 2.40  31 2.43  32 2.43  22 2.47  19 2.47  20 2.47  24 2.47  25 2.47
                            26 2.47  17 2.49  13 2.50  14 2.50
  24  0.889  0.447  0.164-  33 2.40  36 2.41  32 2.43  23 2.47  20 2.47  26 2.47  21 2.47  27 2.47
                            22 2.48  18 2.48  14 2.49  15 2.50
  25  0.556  0.781  0.164-  35 2.40  34 2.40  30 2.41  26 2.47  21 2.47  20 2.47  23 2.47  27 2.47
                            22 2.47  12 2.48  16 2.49  17 2.50
  26  0.889  0.781  0.164-  35 2.40  36 2.41  28 2.41  21 2.47  25 2.47  19 2.47  27 2.47  24 2.47
                            23 2.47  10 2.48  17 2.49  18 2.50
  27  0.223  0.781  0.164-  36 2.40  34 2.40  29 2.43  20 2.47  19 2.47  25 2.47  26 2.47  24 2.47
                            22 2.47  11 2.48  18 2.49  16 2.50
  28  1.000  0.003  0.243-  21 2.40  19 2.40  26 2.41  30 2.46  35 2.46  36 2.47  33 2.47  31 2.47
                            29 2.48
  29  0.334  0.003  0.244-  37 1.74  20 2.43  19 2.43  27 2.43  36 2.47  34 2.47  30 2.48  28 2.48
                            32 2.48  31 2.48
  30  0.668  0.003  0.243-  20 2.40  21 2.40  25 2.41  28 2.46  35 2.46  34 2.47  33 2.47  32 2.47
                            29 2.48
  31  0.334  0.337  0.244-  37 1.74  22 2.43  23 2.43  19 2.43  33 2.47  34 2.47  28 2.47  35 2.47
                            29 2.48  32 2.48
  32  0.668  0.337  0.244-  37 1.74  24 2.43  23 2.43  20 2.43  33 2.47  36 2.47  30 2.47  35 2.47
                            29 2.48  31 2.48
  33  0.001  0.337  0.243-  24 2.40  22 2.40  21 2.41  31 2.47  32 2.47  28 2.47  30 2.47  36 2.47
                            34 2.47
  34  0.334  0.671  0.243-  27 2.40  25 2.40  22 2.41  29 2.47  31 2.47  30 2.47  35 2.47  33 2.47
                            36 2.47
  35  0.668  0.671  0.243-  26 2.40  25 2.40  23 2.40  28 2.46  30 2.46  36 2.47  34 2.47  32 2.47
                            31 2.47
  36  0.001  0.670  0.243-  27 2.40  26 2.41  24 2.41  29 2.47  32 2.47  35 2.47  28 2.47  33 2.47
                            34 2.47
  37  0.445  0.226  0.284-  29 1.74  31 1.74  32 1.74
 
  LATTYP: Found a hexagonal cell.
 ALAT       =     7.4100015225
 C/A-ratio  =     3.3333326485
  
  Lattice vectors:
  
 A1 = (   7.4100000000,   0.0000000000,   0.0000000000)
 A2 = (  -3.7050000000,   6.4172500001,   0.0000000000)
 A3 = (   0.0000000000,   0.0000000000,  24.7000000000)


Analysis of symmetry for initial positions (statically):
=====================================================================
 Subroutine PRICEL returns:
 Original cell was already a primitive cell.
 

 Routine SETGRP: Setting up the symmetry group for a 
 hexagonal supercell.


 Subroutine GETGRP returns: Found  1 space group operations
 (whereof  1 operations were pure point group operations)
 out of a pool of 24 trial point group operations.


The static configuration has the point symmetry C_1 .


Analysis of symmetry for dynamics (positions and initial velocities):
=====================================================================
 Subroutine PRICEL returns:
 Original cell was already a primitive cell.
 

 Routine SETGRP: Setting up the symmetry group for a 
 hexagonal supercell.


 Subroutine GETGRP returns: Found  1 space group operations
 (whereof  1 operations were pure point group operations)
 out of a pool of 24 trial point group operations.


The dynamic configuration has the point symmetry C_1 .


Analysis of constrained symmetry for selective dynamics:
=====================================================================
 Subroutine PRICEL returns:
 Original cell was already a primitive cell.
 

 Routine SETGRP: Setting up the symmetry group for a 
 hexagonal supercell.


 Subroutine GETGRP returns: Found  1 space group operations
 (whereof  1 operations were pure point group operations)
 out of a pool of 24 trial point group operations.


The constrained configuration has the point symmetry C_1 .


Analysis of magnetic symmetry:
=====================================================================
 Subroutine PRICEL returns:
 Original cell was already a primitive cell.
 

 Subroutine MAGSYM returns: Found  1 space group operations
 (whereof  1 operations were pure point group operations)
 out of a pool of  1 trial space group operations
 (whereof  1 operations were pure point group operations)
 and found also     1 'primitive' translations


The magnetic configuration has the point symmetry C_1 .
 
 
 KPOINTS:  Automatic mesh                         

Automatic generation of k-mesh.
Space group operators:
 irot       det(A)        alpha          n_x          n_y          n_z        tau_x        tau_y        tau_z
    1     1.000000     0.000000     1.000000     0.000000     0.000000     0.000000     0.000000     0.000000
 
 Subroutine IBZKPT returns following result:
 ===========================================
 
 Found      5 irreducible k-points:
 
 Following reciprocal coordinates:
            Coordinates               Weight
  0.000000  0.000000  0.000000      1.000000
  0.333333  0.000000  0.000000      2.000000
  0.000000  0.333333  0.000000      2.000000
  0.333333  0.333333  0.000000      2.000000
 -0.333333  0.333333  0.000000      2.000000
 
 Following cartesian coordinates:
            Coordinates               Weight
  0.000000  0.000000  0.000000      1.000000
  0.111111  0.064150  0.000000      2.000000
  0.000000  0.128300  0.000000      2.000000
  0.111111  0.192450  0.000000      2.000000
 -0.111111  0.064150  0.000000      2.000000
 


--------------------------------------------------------------------------------------------------------




 Dimension of arrays:
   k-points           NKPTS =      5   k-points in BZ     NKDIM =      5   number of bands    NBANDS=    224
   number of dos      NEDOS =    301   number of ions     NIONS =     37
   non local maximal  LDIM  =      6   non local SUM 2l+1 LMDIM =     18
   total plane-waves  NPLWV = 163296
   max r-space proj   IRMAX =   1452   max aug-charges    IRDMAX=   5682
   dimension x,y,z NGX =    36 NGY =   36 NGZ =  126
   dimension x,y,z NGXF=    72 NGYF=   72 NGZF=  252
   support grid    NGXF=    72 NGYF=   72 NGZF=  252
   ions per type =              36   1
 NGX,Y,Z   is equivalent  to a cutoff of   8.08,  8.08,  8.48 a.u.
 NGXF,Y,Z  is equivalent  to a cutoff of  16.15, 16.15, 16.96 a.u.


 I would recommend the setting:
   dimension x,y,z NGX =    36 NGY =   36 NGZ =  121
 SYSTEM =  unknown system                          
 POSCAR =  Co H                                    

 Startparameter for this run:
   NWRITE =      2    write-flag & timer
   PREC   = normal    normal or accurate (medium, high low for compatibility)
   ISTART =      0    job   : 0-new  1-cont  2-samecut
   ICHARG =      2    charge: 1-file 2-atom 10-const
   ISPIN  =      2    spin polarized calculation?
   LNONCOLLINEAR =      F non collinear calculations
   LSORBIT =      F    spin-orbit coupling
   INIWAV =      1    electr: 0-lowe 1-rand  2-diag
   LASPH  =      F    aspherical Exc in radial PAW
   METAGGA=      F    non-selfconsistent MetaGGA calc.
   LSOL =      F    Solvation

 Electronic Relaxation 1
   ENCUT  =  400.0 eV  29.40 Ry    5.42 a.u.  12.08 12.08 40.28*2*pi/ulx,y,z
   ENINI  =  400.0     initial cutoff
   ENAUG  =  644.9 eV  augmentation charge cutoff
   NELM   =     60;   NELMIN=  2; NELMDL= -5     # of ELM steps 
   EDIFF  = 0.1E-05   stopping-criterion for ELM
   LREAL  =      T    real-space projection
   NLSPLINE    = F    spline interpolate recip. space projectors
   LCOMPAT=      F    compatible to vasp.4.4
   GGA_COMPAT  = T    GGA compatible to vasp.4.4-vasp.4.6
   LMAXPAW     = -100 max onsite density
   LMAXMIX     =    2 max onsite mixed and CHGCAR
   VOSKOWN=      0    Vosko Wilk Nusair interpolation
   ROPT   =   -0.00050  -0.00050
 Ionic relaxation
   EDIFFG = -.1E-01   stopping-criterion for IOM
   NSW    =    400    number of steps for IOM
   NBLOCK =      1;   KBLOCK =    400    inner block; outer block 
   IBRION =      2    ionic relax: 0-MD 1-quasi-New 2-CG
   NFREE  =      1    steps in history (QN), initial steepest desc. (CG)
   ISIF   =      2    stress and relaxation
   IWAVPR =     11    prediction:  0-non 1-charg 2-wave 3-comb
   ISYM   =      2    0-nonsym 1-usesym 2-fastsym
   LCORR  =      T    Harris-Foulkes like correction to forces

   POTIM  = 0.5000    time-step for ionic-motion
   TEIN   =    0.0    initial temperature
   TEBEG  =    0.0;   TEEND  =   0.0 temperature during run
   SMASS  =  -3.00    Nose mass-parameter (am)
   estimated Nose-frequenzy (Omega)   =  0.10E-29 period in steps =****** mass=  -0.125E-26a.u.
   SCALEE = 1.0000    scale energy and forces
   NPACO  =    256;   APACO  = 16.0  distance and # of slots for P.C.
   PSTRESS=    0.0 pullay stress

  Mass of Ions in am
   POMASS =  58.93  1.00
  Ionic Valenz
   ZVAL   =   9.00  1.00
  Atomic Wigner-Seitz radii
   RWIGS  =  -1.00 -1.00
  virtual crystal weights 
   VCA    =   1.00  1.00
   NELECT =     325.0000    total number of electrons
   NUPDOWN=      -1.0000    fix difference up-down

 DOS related values:
   EMIN   =  10.00;   EMAX   =-10.00  energy-range for DOS
   EFERMI =   0.00
   ISMEAR =     2;   SIGMA  =   0.20  broadening in eV -4-tet -1-fermi 0-gaus

 Electronic relaxation 2 (details)
   IALGO  =     38    algorithm
   LDIAG  =      T    sub-space diagonalisation (order eigenvalues)
   LSUBROT=      F    optimize rotation matrix (better conditioning)
   TURBO    =      0    0=normal 1=particle mesh
   IRESTART =      0    0=no restart 2=restart with 2 vectors
   NREBOOT  =      0    no. of reboots
   NMIN     =      0    reboot dimension
   EREF     =   0.00    reference energy to select bands
   IMIX   =      4    mixing-type and parameters
     AMIX     =   0.40;   BMIX     =  1.00
     AMIX_MAG =   1.60;   BMIX_MAG =  1.00
     AMIN     =   0.10
     WC   =   100.;   INIMIX=   1;  MIXPRE=   1;  MAXMIX= -45

 Intra band minimization:
   WEIMIN = 0.0010     energy-eigenvalue tresh-hold
   EBREAK =  0.11E-08  absolut break condition
   DEPER  =   0.30     relativ break condition  

   TIME   =   0.40     timestep for ELM

  volume/ion in A,a.u.               =      31.74       214.22
  Fermi-wavevector in a.u.,A,eV,Ry     =   1.066796  2.015952 15.484151  1.138053
  Thomas-Fermi vector in A             =   2.202391
 
 Write flags
   LWAVE  =      F    write WAVECAR
   LCHARG =      F    write CHGCAR
   LVTOT  =      F    write LOCPOT, total local potential
   LVHAR  =      F    write LOCPOT, Hartree potential only
   LELF   =      F    write electronic localiz. function (ELF)
   LORBIT =      0    0 simple, 1 ext, 2 COOP (PROOUT)


 Dipole corrections
   LMONO  =      F    monopole corrections only (constant potential shift)
   LDIPOL =      F    correct potential (dipole corrections)
   IDIPOL =      3    1-x, 2-y, 3-z, 4-all directions 
   EPSILON=  1.0000000 bulk dielectric constant

 Exchange correlation treatment:
   GGA     =    PE    GGA type
   LEXCH   =     8    internal setting for exchange type
   VOSKOWN=      0    Vosko Wilk Nusair interpolation
   LHFCALC =     F    Hartree Fock is set to
   LHFONE  =     F    Hartree Fock one center treatment
   AEXX    =    0.0000 exact exchange contribution

 Linear response parameters
   LEPSILON=     F    determine dielectric tensor
   LRPA    =     F    only Hartree local field effects (RPA)
   LNABLA  =     F    use nabla operator in PAW spheres
   LVEL    =     F    velocity operator in full k-point grid
   LINTERFAST=   F  fast interpolation
   KINTER  =     0    interpolate to denser k-point grid
   CSHIFT  =0.1000    complex shift for real part using Kramers Kronig
   OMEGAMAX=  -1.0    maximum frequency
   DEG_THRESHOLD= 0.2000000E-02 threshold for treating states as degnerate
   RTIME   =    0.100 relaxation time in fs

 Orbital magnetization related:
   ORBITALMAG=     F  switch on orbital magnetization
   LCHIMAG   =     F  perturbation theory with respect to B field
   DQ        =  0.001000  dq finite difference perturbation B field



--------------------------------------------------------------------------------------------------------


 conjugate gradient relaxation of ions
   using selective dynamics as specified on POSCAR
 charge density and potential will be updated during run
 spin polarized calculation
 Variant of blocked Davidson
 Davidson routine will perform the subspace rotation
 perform sub-space diagonalisation
    after iterative eigenvector-optimisation
 modified Broyden-mixing scheme, WC =      100.0
 initial mixing is a Kerker type mixing with AMIX =  0.4000 and BMIX =      1.0000
 Hartree-type preconditioning will be used
 using additional bands           61
 real space projection scheme for non local part
 use partial core corrections
 calculate Harris-corrections to forces 
   (improved forces if not selfconsistent)
 use gradient corrections 
 use of overlap-Matrix (Vanderbilt PP)
 Methfessel and Paxton  Order N= 2 SIGMA  =   0.20


--------------------------------------------------------------------------------------------------------


  energy-cutoff  :      400.00
  volume of cell :     1174.53
      direct lattice vectors                 reciprocal lattice vectors
     7.410000000  0.000000000  0.000000000     0.134952767  0.077914995  0.000000000
    -3.705000000  6.417250000  0.000000000     0.000000000  0.155829989  0.000000000
     0.000000000  0.000000000 24.700000000     0.000000000  0.000000000  0.040485830

  length of vectors
     7.410000000  7.410001522 24.700000000     0.155830021  0.155829989  0.040485830


 
 k-points in units of 2pi/SCALE and weight:  Automatic mesh                         
   0.00000000  0.00000000  0.00000000       0.111
   0.11111111  0.06415001  0.00000000       0.222
   0.00000000  0.12830002  0.00000000       0.222
   0.11111111  0.19245004  0.00000000       0.222
  -0.11111111  0.06415001  0.00000000       0.222
 
 k-points in reciprocal lattice and weights:  Automatic mesh                         
   0.00000000  0.00000000  0.00000000       0.111
   0.33333333  0.00000000  0.00000000       0.222
   0.00000000  0.33333333  0.00000000       0.222
   0.33333333  0.33333333  0.00000000       0.222
  -0.33333333  0.33333333  0.00000000       0.222
 
 position of ions in fractional coordinates (direct lattice) 
   0.22222237  0.11111141  0.00000000
   0.55555571  0.11111141  0.00000000
   0.88888904  0.11111141  0.00000000
   0.22222206  0.44444412  0.00000000
   0.55555539  0.44444412  0.00000000
   0.88888872  0.44444412  0.00000000
   0.55555431  0.77777528  0.00000000
   0.88888764  0.77777528  0.00000000
   0.22222097  0.77777528  0.00000000
   0.00000000  0.00000000  0.08164980
   0.33333333  0.00000000  0.08164980
   0.66666667  0.00000000  0.08164980
   0.33333302  0.33333270  0.08164980
   0.66666635  0.33333270  0.08164980
   0.99999968  0.33333270  0.08164980
   0.33333309  0.66666617  0.08164980
   0.66666642  0.66666617  0.08164980
   0.99999975  0.66666617  0.08164980
   0.22286218  0.11422023  0.16454624
   0.55584827  0.11416748  0.16456801
   0.88936465  0.11383056  0.16421519
   0.22293698  0.44717773  0.16432170
   0.55584321  0.44719728  0.16455660
   0.88893103  0.44724987  0.16435337
   0.55626374  0.78089817  0.16420473
   0.88923599  0.78096050  0.16421221
   0.22286363  0.78113586  0.16433696
   0.99992993  0.00325530  0.24262848
   0.33378873  0.00298166  0.24416404
   0.66793875  0.00333182  0.24260398
   0.33370694  0.33729103  0.24415975
   0.66809921  0.33719559  0.24414946
   0.00089875  0.33705800  0.24263728
   0.33448886  0.67051922  0.24264727
   0.66791650  0.67095711  0.24259805
   0.00085352  0.67044142  0.24263828
   0.44502670  0.22563400  0.28447202
 
 position of ions in cartesian coordinates  (Angst):
   1.23500000  0.71302972  0.00000000
   3.70500000  0.71302972  0.00000000
   6.17500000  0.71302972  0.00000000
  -0.00000000  2.85210900  0.00000000
   2.47000000  2.85210900  0.00000000
   4.94000000  2.85210900  0.00000000
   1.23500000  4.99117840  0.00000000
   3.70500000  4.99117840  0.00000000
  -1.23500000  4.99117840  0.00000000
   0.00000000  0.00000000  2.01675006
   2.47000000  0.00000000  2.01675006
   4.94000000  0.00000000  2.01675006
   1.23500000  2.13907928  2.01675006
   3.70500000  2.13907928  2.01675006
   6.17500000  2.13907928  2.01675006
   0.00000000  4.27816350  2.01675006
   2.47000000  4.27816350  2.01675006
   4.94000000  4.27816350  2.01675006
   1.22822280  0.73297977  4.06429218
   3.69584512  0.73264128  4.06482977
   6.16844983  0.73047915  4.05611514
  -0.00483049  2.86965131  4.05874599
   2.46193224  2.86977674  4.06454798
   4.92991819  2.87011420  4.05952830
   1.22868657  5.01121877  4.05585674
   3.69578002  5.01161874  4.05604170
  -1.24268889  5.01274408  4.05912285
   7.39741992  0.02089005  5.99292355
   2.46232742  0.01913409  6.03085191
   4.93708173  0.02138112  5.99231835
   1.22310517  2.16448089  6.03074573
   3.70130548  2.16386839  6.03049175
  -1.24214014  2.16298547  5.99314075
  -0.00571130  4.30288948  5.99338760
   2.46336520  4.30569952  5.99217184
  -2.47766089  4.30239021  5.99316540
   2.46167385  1.44794981  7.02645893
 


--------------------------------------------------------------------------------------------------------


 k-point  1 :   0.0000 0.0000 0.0000  plane waves:   21237
 k-point  2 :   0.3333 0.0000 0.0000  plane waves:   21309
 k-point  3 :   0.0000 0.3333 0.0000  plane waves:   21309
 k-point  4 :   0.3333 0.3333 0.0000  plane waves:   21354
 k-point  5 :  -0.3333 0.3333 0.0000  plane waves:   21309

 maximum and minimum number of plane-waves per node :     21354    21237

 maximum number of plane-waves:     21354
 maximum index in each direction: 
   IXMAX=   12   IYMAX=   12   IZMAX=   40
   IXMIN=  -12   IYMIN=  -12   IZMIN=  -40

 WARNING: aliasing errors must be expected set NGX to  50 to avoid them
 WARNING: aliasing errors must be expected set NGY to  50 to avoid them
 WARNING: aliasing errors must be expected set NGZ to 162 to avoid them
 aliasing errors are usually negligible using standard VASP settings
 and one can safely disregard these warnings

 serial   3D FFT for wavefunctions
 parallel 3D FFT for charge:
    minimum data exchange during FFTs selected (reduces bandwidth)


 total amount of memory used by VASP on root node   170931. kBytes
========================================================================

   base      :      30000. kBytes
   nonlr-proj:       8696. kBytes
   fftplans  :       6203. kBytes
   grid      :      26251. kBytes
   one-center:       1150. kBytes
   wavefun   :      98631. kBytes
 
     INWAV:  cpu time    0.00: real time    0.00
 Broyden mixing: mesh for mixing (old mesh)
   NGX = 25   NGY = 25   NGZ = 81
  (NGX  = 72   NGY  = 72   NGZ  =252)
  gives a total of  50625 points

 initial charge density was supplied:
 charge density of overlapping atoms calculated
 number of electron     325.0000000 magnetization      58.6800000
 keeping initial charge density in first step


--------------------------------------------------------------------------------------------------------


 Maximum index for non-local projection operator         1375
 Maximum index for augmentation-charges          722 (set IRDMAX)


--------------------------------------------------------------------------------------------------------


 First call to EWALD:  gamma=   0.168
 Maximum number of real-space cells 4x 4x 1
 Maximum number of reciprocal cells 2x 2x 6

 FEWALD executed in parallel
    FEWALD:  cpu time    0.00: real time    0.00


----------------------------------------- Iteration    1(   1)  ---------------------------------------


    POTLOK:  cpu time    0.31: real time    0.31
    SETDIJ:  cpu time    0.04: real time    0.04
     EDDAV:  cpu time   21.66: real time   21.76
       DOS:  cpu time    0.00: real time    0.00
    --------------------------------------------
      LOOP:  cpu time   22.02: real time   22.12

 eigenvalue-minimisations  :  4480
 total energy-change (2. order) : 0.2343787E+04  (-0.1198112E+05)
 number of electron     325.0000000 magnetization      58.6800000
 augmentation part      325.0000000 magnetization      58.6800000

 Free energy of the ion-electron system (eV)
  ---------------------------------------------------
  alpha Z        PSCENC =       469.49990953
  Ewald energy   TEWEN  =    166056.33731333
  -Hartree energ DENC   =   -194129.46367172
  -exchange      EXHF   =         0.00000000
  -V(xc)+E(xc)   XCENC  =       608.00769379
  PAW double counting   =     25947.78752387   -27856.01206561
  entropy T*S    EENTRO =        -0.01422873
  eigenvalues    EBANDS =      1954.28791562
  atomic energy  EATOM  =     29293.35706028
  Solvation contrib.  Ediel  =         0.00000000
  ---------------------------------------------------
  free energy    TOTEN  =      2343.78745036 eV

  energy without entropy =     2343.80167908  energy(sigma->0) =     2343.79100754


--------------------------------------------------------------------------------------------------------




----------------------------------------- Iteration    1(   2)  ---------------------------------------


     EDDAV:  cpu time   23.87: real time   23.87
       DOS:  cpu time    0.00: real time    0.00
    --------------------------------------------
      LOOP:  cpu time   23.88: real time   23.88

 eigenvalue-minimisations  :  4480
 total energy-change (2. order) :-0.2426487E+04  (-0.2277380E+04)
 number of electron     325.0000000 magnetization      58.6800000
 augmentation part      325.0000000 magnetization      58.6800000

 Free energy of the ion-electron system (eV)
  ---------------------------------------------------
  alpha Z        PSCENC =       469.49990953
  Ewald energy   TEWEN  =    166056.33731333
  -Hartree energ DENC   =   -194129.46367172
  -exchange      EXHF   =         0.00000000
  -V(xc)+E(xc)   XCENC  =       608.00769379
  PAW double counting   =     25947.78752387   -27856.01206561
  entropy T*S    EENTRO =        -0.00088493
  eigenvalues    EBANDS =      -472.21259751
  atomic energy  EATOM  =     29293.35706028
  Solvation contrib.  Ediel  =         0.00000000
  ---------------------------------------------------
  free energy    TOTEN  =       -82.69971898 eV

  energy without entropy =      -82.69883404  energy(sigma->0) =      -82.69949774


--------------------------------------------------------------------------------------------------------




----------------------------------------- Iteration    1(   3)  ---------------------------------------


     EDDAV:  cpu time   23.64: real time   23.69
       DOS:  cpu time    0.00: real time    0.00
    --------------------------------------------
      LOOP:  cpu time   23.64: real time   23.70

 eigenvalue-minimisations  :  4736
 total energy-change (2. order) :-0.1915791E+03  (-0.1696813E+03)
 number of electron     325.0000000 magnetization      58.6800000
 augmentation part      325.0000000 magnetization      58.6800000

 Free energy of the ion-electron system (eV)
  ---------------------------------------------------
  alpha Z        PSCENC =       469.49990953
  Ewald energy   TEWEN  =    166056.33731333
  -Hartree energ DENC   =   -194129.46367172
  -exchange      EXHF   =         0.00000000
  -V(xc)+E(xc)   XCENC  =       608.00769379
  PAW double counting   =     25947.78752387   -27856.01206561
  entropy T*S    EENTRO =         0.15013619
  eigenvalues    EBANDS =      -663.94266870
  atomic energy  EATOM  =     29293.35706028
  Solvation contrib.  Ediel  =         0.00000000
  ---------------------------------------------------
  free energy    TOTEN  =      -274.27876904 eV

  energy without entropy =     -274.42890523  energy(sigma->0) =     -274.31630309


--------------------------------------------------------------------------------------------------------




----------------------------------------- Iteration    1(   4)  ---------------------------------------


     EDDAV:  cpu time   23.51: real time   23.51
       DOS:  cpu time    0.00: real time    0.00
    --------------------------------------------
      LOOP:  cpu time   23.52: real time   23.52

 eigenvalue-minimisations  :  4760
 total energy-change (2. order) :-0.6521425E+01  (-0.6387436E+01)
 number of electron     325.0000000 magnetization      58.6800000
 augmentation part      325.0000000 magnetization      58.6800000

 Free energy of the ion-electron system (eV)
  ---------------------------------------------------
  alpha Z        PSCENC =       469.49990953
  Ewald energy   TEWEN  =    166056.33731333
  -Hartree energ DENC   =   -194129.46367172
  -exchange      EXHF   =         0.00000000
  -V(xc)+E(xc)   XCENC  =       608.00769379
  PAW double counting   =     25947.78752387   -27856.01206561
  entropy T*S    EENTRO =         0.15242504
  eigenvalues    EBANDS =      -670.46638213
  atomic energy  EATOM  =     29293.35706028
  Solvation contrib.  Ediel  =         0.00000000
  ---------------------------------------------------
  free energy    TOTEN  =      -280.80019362 eV

  energy without entropy =     -280.95261866  energy(sigma->0) =     -280.83829988


--------------------------------------------------------------------------------------------------------




----------------------------------------- Iteration    1(   5)  ---------------------------------------


     EDDAV:  cpu time   29.53: real time   29.53
       DOS:  cpu time    0.00: real time    0.00
    CHARGE:  cpu time    1.12: real time    1.12
    MIXING:  cpu time    0.01: real time    0.01
    --------------------------------------------
      LOOP:  cpu time   30.66: real time   30.66

 eigenvalue-minimisations  :  5144
 total energy-change (2. order) :-0.1310272E+00  (-0.1309297E+00)
 number of electron     324.9999057 magnetization      58.3132635
 augmentation part      165.7883459 magnetization      46.3510179

 Broyden mixing:
  rms(total) = 0.62486E+01    rms(broyden)= 0.62486E+01
  rms(prec ) = 0.64939E+01
  weight for this iteration     100.00

 Free energy of the ion-electron system (eV)
  ---------------------------------------------------
  alpha Z        PSCENC =       469.49990953
  Ewald energy   TEWEN  =    166056.33731333
  -Hartree energ DENC   =   -194129.46367172
  -exchange      EXHF   =         0.00000000
  -V(xc)+E(xc)   XCENC  =       608.00769379
  PAW double counting   =     25947.78752387   -27856.01206561
  entropy T*S    EENTRO =         0.15237654
  eigenvalues    EBANDS =      -670.59736081
  atomic energy  EATOM  =     29293.35706028
  Solvation contrib.  Ediel  =         0.00000000
  ---------------------------------------------------
  free energy    TOTEN  =      -280.93122080 eV

  energy without entropy =     -281.08359735  energy(sigma->0) =     -280.96931494


--------------------------------------------------------------------------------------------------------




----------------------------------------- Iteration    1(   6)  ---------------------------------------


    POTLOK:  cpu time    0.34: real time    0.34
    SETDIJ:  cpu time    0.04: real time    0.04
     EDDAV:  cpu time   31.07: real time   31.07
       DOS:  cpu time    0.00: real time    0.00
    CHARGE:  cpu time    1.14: real time    1.14
    MIXING:  cpu time    0.01: real time    0.01
    --------------------------------------------
      LOOP:  cpu time   32.61: real time   32.61

 eigenvalue-minimisations  :  5392
 total energy-change (2. order) :-0.6647633E+02  (-0.3526586E+02)
 number of electron     324.9998470 magnetization      57.7955992
 augmentation part      188.2948034 magnetization      51.0054614

 Broyden mixing:
  rms(total) = 0.12592E+02    rms(broyden)= 0.12592E+02
  rms(prec ) = 0.14027E+02
  weight for this iteration     100.00

 eigenvalues of (default mixing * dielectric matrix)
  average eigenvalue GAMMA=   0.2322
  0.2322

 Free energy of the ion-electron system (eV)
  ---------------------------------------------------
  alpha Z        PSCENC =       469.49990953
  Ewald energy   TEWEN  =    166056.33731333
  -Hartree energ DENC   =   -193724.32529098
  -exchange      EXHF   =         0.00000000
  -V(xc)+E(xc)   XCENC  =       580.16883943
  PAW double counting   =     28340.02782809   -30063.22950682
  entropy T*S    EENTRO =         0.01307308
  eigenvalues    EBANDS =     -1299.25677531
  atomic energy  EATOM  =     29293.35706028
  Solvation contrib.  Ediel  =         0.00000000
  ---------------------------------------------------
  free energy    TOTEN  =      -347.40754936 eV

  energy without entropy =     -347.42062244  energy(sigma->0) =     -347.41081763


--------------------------------------------------------------------------------------------------------




----------------------------------------- Iteration    1(   7)  ---------------------------------------


    POTLOK:  cpu time    0.31: real time    0.31
    SETDIJ:  cpu time    0.06: real time    0.05
     EDDAV:  cpu time   25.48: real time   25.48
       DOS:  cpu time    0.00: real time    0.00
    CHARGE:  cpu time    0.94: real time    0.94
    MIXING:  cpu time    0.01: real time    0.02
    --------------------------------------------
      LOOP:  cpu time   26.80: real time   26.81

 eigenvalue-minimisations  :  4944
 total energy-change (2. order) : 0.4903375E+02  (-0.2429685E+02)
 number of electron     324.9999109 magnetization      56.8735253
 augmentation part      194.4020975 magnetization      46.9647674

 Broyden mixing:
  rms(total) = 0.95648E+01    rms(broyden)= 0.95644E+01
  rms(prec ) = 0.10926E+02
  weight for this iteration     100.00

 eigenvalues of (default mixing * dielectric matrix)
  average eigenvalue GAMMA=   0.3416
  0.5582  0.1249

 Free energy of the ion-electron system (eV)
  ---------------------------------------------------
  alpha Z        PSCENC =       469.49990953
  Ewald energy   TEWEN  =    166056.33731333
  -Hartree energ DENC   =   -193470.26694923
  -exchange      EXHF   =         0.00000000
  -V(xc)+E(xc)   XCENC  =       579.19072157
  PAW double counting   =     28823.11980888   -30573.53634398
  entropy T*S    EENTRO =        -0.00707500
  eigenvalues    EBANDS =     -1476.06824805
  atomic energy  EATOM  =     29293.35706028
  Solvation contrib.  Ediel  =         0.00000000
  ---------------------------------------------------
  free energy    TOTEN  =      -298.37380267 eV

  energy without entropy =     -298.36672768  energy(sigma->0) =     -298.37203392


--------------------------------------------------------------------------------------------------------




----------------------------------------- Iteration    1(   8)  ---------------------------------------


    POTLOK:  cpu time    0.32: real time    0.32
    SETDIJ:  cpu time    0.04: real time    0.04
     EDDAV:  cpu time   34.35: real time   34.35
       DOS:  cpu time    0.00: real time    0.00
    CHARGE:  cpu time    1.08: real time    1.09
    MIXING:  cpu time    0.01: real time    0.01
    --------------------------------------------
      LOOP:  cpu time   35.81: real time   35.81

 eigenvalue-minimisations  :  6624
 total energy-change (2. order) : 0.4930539E+02  (-0.6462239E+01)
 number of electron     324.9998699 magnetization      56.6181906
 augmentation part      187.3973163 magnetization      46.1752502

 Broyden mixing:
  rms(total) = 0.52942E+01    rms(broyden)= 0.52939E+01
  rms(prec ) = 0.63340E+01
  weight for this iteration     100.00

 eigenvalues of (default mixing * dielectric matrix)
  average eigenvalue GAMMA=   0.3804
  0.6614  0.3614  0.1184

 Free energy of the ion-electron system (eV)
  ---------------------------------------------------
  alpha Z        PSCENC =       469.49990953
  Ewald energy   TEWEN  =    166056.33731333
  -Hartree energ DENC   =   -193873.74041862
  -exchange      EXHF   =         0.00000000
  -V(xc)+E(xc)   XCENC  =       582.01490221
  PAW double counting   =     30128.59224124   -31970.09706357
  entropy T*S    EENTRO =         0.02152560
  eigenvalues    EBANDS =      -935.05388410
  atomic energy  EATOM  =     29293.35706028
  Solvation contrib.  Ediel  =         0.00000000
  ---------------------------------------------------
  free energy    TOTEN  =      -249.06841410 eV

  energy without entropy =     -249.08993970  energy(sigma->0) =     -249.07379550


--------------------------------------------------------------------------------------------------------




----------------------------------------- Iteration    1(   9)  ---------------------------------------


    POTLOK:  cpu time    0.33: real time    0.33
    SETDIJ:  cpu time    0.04: real time    0.04
     EDDAV:  cpu time   33.42: real time   33.42
       DOS:  cpu time    0.00: real time    0.00
    CHARGE:  cpu time    1.17: real time    1.17
    MIXING:  cpu time    0.01: real time    0.01
    --------------------------------------------
      LOOP:  cpu time   34.98: real time   34.98

 eigenvalue-minimisations  :  5464
 total energy-change (2. order) :-0.6482224E+02  (-0.6941955E+01)
 number of electron     324.9999215 magnetization      56.0042250
 augmentation part      184.6909513 magnetization      47.0074010

 Broyden mixing:
  rms(total) = 0.10317E+02    rms(broyden)= 0.10317E+02
  rms(prec ) = 0.14068E+02
  weight for this iteration     100.00

 eigenvalues of (default mixing * dielectric matrix)
  average eigenvalue GAMMA=   0.3804
  0.7902  0.5071  0.1256  0.0988

 Free energy of the ion-electron system (eV)
  ---------------------------------------------------
  alpha Z        PSCENC =       469.49990953
  Ewald energy   TEWEN  =    166056.33731333
  -Hartree energ DENC   =   -193917.76950106
  -exchange      EXHF   =         0.00000000
  -V(xc)+E(xc)   XCENC  =       584.60120473
  PAW double counting   =     30536.75610783   -32401.19601538
  entropy T*S    EENTRO =        -0.01236917
  eigenvalues    EBANDS =      -935.46436552
  atomic energy  EATOM  =     29293.35706028
  Solvation contrib.  Ediel  =         0.00000000
  ---------------------------------------------------
  free energy    TOTEN  =      -313.89065544 eV

  energy without entropy =     -313.87828627  energy(sigma->0) =     -313.88756315


--------------------------------------------------------------------------------------------------------




----------------------------------------- Iteration    1(  10)  ---------------------------------------


    POTLOK:  cpu time    0.37: real time    0.37
    SETDIJ:  cpu time    0.04: real time    0.04
     EDDAV:  cpu time   26.74: real time   26.74
       DOS:  cpu time    0.00: real time    0.00
    CHARGE:  cpu time    1.08: real time    1.08
    MIXING:  cpu time    0.01: real time    0.01
    --------------------------------------------
      LOOP:  cpu time   28.24: real time   28.25

 eigenvalue-minimisations  :  5288
 total energy-change (2. order) : 0.2718590E+02  (-0.7480987E+01)
 number of electron     324.9998562 magnetization      55.5105378
 augmentation part      184.9787514 magnetization      48.0585076

 Broyden mixing:
  rms(total) = 0.10343E+02    rms(broyden)= 0.10342E+02
  rms(prec ) = 0.12771E+02
  weight for this iteration     100.00

 eigenvalues of (default mixing * dielectric matrix)
  average eigenvalue GAMMA=   0.3473
  0.7018  0.7018  0.1345  0.1345  0.0637

 Free energy of the ion-electron system (eV)
  ---------------------------------------------------
  alpha Z        PSCENC =       469.49990953
  Ewald energy   TEWEN  =    166056.33731333
  -Hartree energ DENC   =   -193954.80993180
  -exchange      EXHF   =         0.00000000
  -V(xc)+E(xc)   XCENC  =       586.06528607
  PAW double counting   =     31035.83792816   -32922.01486414
  entropy T*S    EENTRO =         0.04190240
  eigenvalues    EBANDS =      -851.01935561
  atomic energy  EATOM  =     29293.35706028
  Solvation contrib.  Ediel  =         0.00000000
  ---------------------------------------------------
  free energy    TOTEN  =      -286.70475179 eV

  energy without entropy =     -286.74665418  energy(sigma->0) =     -286.71522739


--------------------------------------------------------------------------------------------------------




----------------------------------------- Iteration    1(  11)  ---------------------------------------


    POTLOK:  cpu time    0.34: real time    0.35
    SETDIJ:  cpu time    0.06: real time    0.06
     EDDAV:  cpu time   26.80: real time   26.80
       DOS:  cpu time    0.00: real time    0.00
    CHARGE:  cpu time    1.08: real time    1.08
    MIXING:  cpu time    0.01: real time    0.01
    --------------------------------------------
      LOOP:  cpu time   28.29: real time   28.30

 eigenvalue-minimisations  :  5168
 total energy-change (2. order) : 0.4531111E+02  (-0.4337649E+01)
 number of electron     324.9998800 magnetization      55.2145365
 augmentation part      184.3530301 magnetization      44.3883424

 Broyden mixing:
  rms(total) = 0.43546E+01    rms(broyden)= 0.43540E+01
  rms(prec ) = 0.50303E+01
  weight for this iteration     100.00

 eigenvalues of (default mixing * dielectric matrix)
  average eigenvalue GAMMA=   0.3890
  1.0781  0.4776  0.4776  0.1408  0.0999  0.0600

 Free energy of the ion-electron system (eV)
  ---------------------------------------------------
  alpha Z        PSCENC =       469.49990953
  Ewald energy   TEWEN  =    166056.33731333
  -Hartree energ DENC   =   -193966.19272278
  -exchange      EXHF   =         0.00000000
  -V(xc)+E(xc)   XCENC  =       586.81269974
  PAW double counting   =     31277.75273129   -33173.31756211
  entropy T*S    EENTRO =        -0.10992745
  eigenvalues    EBANDS =      -785.53314436
  atomic energy  EATOM  =     29293.35706028
  Solvation contrib.  Ediel  =         0.00000000
  ---------------------------------------------------
  free energy    TOTEN  =      -241.39364252 eV

  energy without entropy =     -241.28371507  energy(sigma->0) =     -241.36616066


--------------------------------------------------------------------------------------------------------




----------------------------------------- Iteration    1(  12)  ---------------------------------------


    POTLOK:  cpu time    0.34: real time    0.34
    SETDIJ:  cpu time    0.04: real time    0.04
     EDDAV:  cpu time   29.28: real time   29.29
       DOS:  cpu time    0.00: real time    0.00
    CHARGE:  cpu time    1.06: real time    1.06
    MIXING:  cpu time    0.02: real time    0.01
    --------------------------------------------
      LOOP:  cpu time   30.75: real time   30.75

 eigenvalue-minimisations  :  5184
 total energy-change (2. order) : 0.1502143E+01  (-0.2395014E+01)
 number of electron     324.9998943 magnetization      55.1555814
 augmentation part      184.1657849 magnetization      43.9211591

 Broyden mixing:
  rms(total) = 0.33711E+01    rms(broyden)= 0.33709E+01
  rms(prec ) = 0.35887E+01
  weight for this iteration     100.00

 eigenvalues of (default mixing * dielectric matrix)
  average eigenvalue GAMMA=   0.3551
  1.1436  0.4755  0.4755  0.1345  0.0974  0.0974  0.0618

 Free energy of the ion-electron system (eV)
  ---------------------------------------------------
  alpha Z        PSCENC =       469.49990953
  Ewald energy   TEWEN  =    166056.33731333
  -Hartree energ DENC   =   -193940.13483520
  -exchange      EXHF   =         0.00000000
  -V(xc)+E(xc)   XCENC  =       587.23878275
  PAW double counting   =     31555.68777719   -33459.03247027
  entropy T*S    EENTRO =        -0.01006428
  eigenvalues    EBANDS =      -802.83497292
  atomic energy  EATOM  =     29293.35706028
  Solvation contrib.  Ediel  =         0.00000000
  ---------------------------------------------------
  free energy    TOTEN  =      -239.89149959 eV

  energy without entropy =     -239.88143531  energy(sigma->0) =     -239.88898352


--------------------------------------------------------------------------------------------------------




----------------------------------------- Iteration    1(  13)  ---------------------------------------


    POTLOK:  cpu time    0.33: real time    0.33
    SETDIJ:  cpu time    0.05: real time    0.05
     EDDAV:  cpu time   27.82: real time   27.83
       DOS:  cpu time    0.00: real time    0.00
    CHARGE:  cpu time    1.00: real time    1.01
    MIXING:  cpu time    0.01: real time    0.01
    --------------------------------------------
      LOOP:  cpu time   29.23: real time   29.23

 eigenvalue-minimisations  :  4752
 total energy-change (2. order) : 0.3034960E+01  (-0.8560050E+00)
 number of electron     324.9998945 magnetization      55.0807930
 augmentation part      183.7599378 magnetization      44.6167292

 Broyden mixing:
  rms(total) = 0.18567E+01    rms(broyden)= 0.18566E+01
  rms(prec ) = 0.20504E+01
  weight for this iteration     100.00

 eigenvalues of (default mixing * dielectric matrix)
  average eigenvalue GAMMA=   0.3676
  1.2718  0.4819  0.4819  0.2484  0.1706  0.1270  0.0987  0.0603

 Free energy of the ion-electron system (eV)
  ---------------------------------------------------
  alpha Z        PSCENC =       469.49990953
  Ewald energy   TEWEN  =    166056.33731333
  -Hartree energ DENC   =   -193942.45143731
  -exchange      EXHF   =         0.00000000
  -V(xc)+E(xc)   XCENC  =       587.85616525
  PAW double counting   =     31667.74326660   -33573.17905199
  entropy T*S    EENTRO =        -0.04123827
  eigenvalues    EBANDS =      -795.97852718
  atomic energy  EATOM  =     29293.35706028
  Solvation contrib.  Ediel  =         0.00000000
  ---------------------------------------------------
  free energy    TOTEN  =      -236.85653975 eV

  energy without entropy =     -236.81530148  energy(sigma->0) =     -236.84623018


--------------------------------------------------------------------------------------------------------




----------------------------------------- Iteration    1(  14)  ---------------------------------------


    POTLOK:  cpu time    0.30: real time    0.30
    SETDIJ:  cpu time    0.04: real time    0.04
     EDDAV:  cpu time   25.48: real time   25.48
       DOS:  cpu time    0.00: real time    0.00
    CHARGE:  cpu time    1.00: real time    1.00
    MIXING:  cpu time    0.02: real time    0.01
    --------------------------------------------
      LOOP:  cpu time   26.84: real time   26.84

 eigenvalue-minimisations  :  5088
 total energy-change (2. order) :-0.2591606E+01  (-0.4694915E+00)
 number of electron     324.9998892 magnetization      55.0438994
 augmentation part      184.0978330 magnetization      45.5562641

 Broyden mixing:
  rms(total) = 0.17128E+01    rms(broyden)= 0.17127E+01
  rms(prec ) = 0.18086E+01
  weight for this iteration     100.00

 eigenvalues of (default mixing * dielectric matrix)
  average eigenvalue GAMMA=   0.3619
  1.3144  0.4868  0.4868  0.2775  0.2775  0.1236  0.1236  0.1064  0.0604

 Free energy of the ion-electron system (eV)
  ---------------------------------------------------
  alpha Z        PSCENC =       469.49990953
  Ewald energy   TEWEN  =    166056.33731333
  -Hartree energ DENC   =   -193956.07718033
  -exchange      EXHF   =         0.00000000
  -V(xc)+E(xc)   XCENC  =       587.20628096
  PAW double counting   =     31904.51173199   -33809.29311786
  entropy T*S    EENTRO =        -0.04760627
  eigenvalues    EBANDS =      -784.94253764
  atomic energy  EATOM  =     29293.35706028
  Solvation contrib.  Ediel  =         0.00000000
  ---------------------------------------------------
  free energy    TOTEN  =      -239.44814601 eV

  energy without entropy =     -239.40053973  energy(sigma->0) =     -239.43624444


--------------------------------------------------------------------------------------------------------




----------------------------------------- Iteration    1(  15)  ---------------------------------------


    POTLOK:  cpu time    0.42: real time    0.42
    SETDIJ:  cpu time    0.06: real time    0.06
     EDDAV:  cpu time   28.55: real time   28.56
       DOS:  cpu time    0.00: real time    0.00
    CHARGE:  cpu time    1.17: real time    1.17
    MIXING:  cpu time    0.02: real time    0.02
    --------------------------------------------
      LOOP:  cpu time   30.22: real time   30.22

 eigenvalue-minimisations  :  4736
 total energy-change (2. order) :-0.4891383E+00  (-0.2327273E+00)
 number of electron     324.9998883 magnetization      54.9658811
 augmentation part      184.2283546 magnetization      45.9169772

 Broyden mixing:
  rms(total) = 0.14291E+01    rms(broyden)= 0.14290E+01
  rms(prec ) = 0.15062E+01
  weight for this iteration     100.00

 eigenvalues of (default mixing * dielectric matrix)
  average eigenvalue GAMMA=   0.4307
  1.4810  0.7074  0.7074  0.4324  0.4324  0.0604  0.1006  0.1319  0.1319  0.1211

 Free energy of the ion-electron system (eV)
  ---------------------------------------------------
  alpha Z        PSCENC =       469.49990953
  Ewald energy   TEWEN  =    166056.33731333
  -Hartree energ DENC   =   -193961.83658273
  -exchange      EXHF   =         0.00000000
  -V(xc)+E(xc)   XCENC  =       587.10735012
  PAW double counting   =     31999.61426193   -33904.44696837
  entropy T*S    EENTRO =        -0.05127870
  eigenvalues    EBANDS =      -779.51834965
  atomic energy  EATOM  =     29293.35706028
  Solvation contrib.  Ediel  =         0.00000000
  ---------------------------------------------------
  free energy    TOTEN  =      -239.93728427 eV

  energy without entropy =     -239.88600557  energy(sigma->0) =     -239.92446459


--------------------------------------------------------------------------------------------------------




----------------------------------------- Iteration    1(  16)  ---------------------------------------


    POTLOK:  cpu time    0.37: real time    0.37
    SETDIJ:  cpu time    0.05: real time    0.06
     EDDAV:  cpu time   27.30: real time   27.30
       DOS:  cpu time    0.00: real time    0.00
    CHARGE:  cpu time    0.94: real time    0.94
    MIXING:  cpu time    0.02: real time    0.02
    --------------------------------------------
      LOOP:  cpu time   28.68: real time   28.69

 eigenvalue-minimisations  :  4856
 total energy-change (2. order) :-0.1703811E+01  (-0.2313632E+00)
 number of electron     324.9998870 magnetization      55.0047831
 augmentation part      184.6915726 magnetization      47.0721423

 Broyden mixing:
  rms(total) = 0.12723E+01    rms(broyden)= 0.12722E+01
  rms(prec ) = 0.13899E+01
  weight for this iteration     100.00

 eigenvalues of (default mixing * dielectric matrix)
  average eigenvalue GAMMA=   0.4471
  1.5938  0.8235  0.8235  0.4468  0.4468  0.2365  0.0604  0.1364  0.1364  0.1029
  0.1115

 Free energy of the ion-electron system (eV)
  ---------------------------------------------------
  alpha Z        PSCENC =       469.49990953
  Ewald energy   TEWEN  =    166056.33731333
  -Hartree energ DENC   =   -193976.88508057
  -exchange      EXHF   =         0.00000000
  -V(xc)+E(xc)   XCENC  =       587.06414098
  PAW double counting   =     32234.16601322   -34140.12681475
  entropy T*S    EENTRO =        -0.05504051
  eigenvalues    EBANDS =      -764.99859653
  atomic energy  EATOM  =     29293.35706028
  Solvation contrib.  Ediel  =         0.00000000
  ---------------------------------------------------
  free energy    TOTEN  =      -241.64109501 eV

  energy without entropy =     -241.58605450  energy(sigma->0) =     -241.62733489


--------------------------------------------------------------------------------------------------------




----------------------------------------- Iteration    1(  17)  ---------------------------------------


    POTLOK:  cpu time    0.37: real time    0.37
    SETDIJ:  cpu time    0.06: real time    0.06
     EDDAV:  cpu time   25.80: real time   25.80
       DOS:  cpu time    0.00: real time    0.00
    CHARGE:  cpu time    0.90: real time    0.90
    MIXING:  cpu time    0.02: real time    0.01
    --------------------------------------------
      LOOP:  cpu time   27.15: real time   27.15

 eigenvalue-minimisations  :  4704
 total energy-change (2. order) :-0.7441039E+00  (-0.1618989E+00)
 number of electron     324.9998875 magnetization      55.1379532
 augmentation part      184.8752603 magnetization      47.7570209

 Broyden mixing:
  rms(total) = 0.11001E+01    rms(broyden)= 0.11000E+01
  rms(prec ) = 0.12223E+01
  weight for this iteration     100.00

 eigenvalues of (default mixing * dielectric matrix)
  average eigenvalue GAMMA=   0.4774
  1.8528  0.9166  0.9166  0.4852  0.4852  0.3989  0.0604  0.1387  0.1387  0.1018
  0.1169  0.1169

 Free energy of the ion-electron system (eV)
  ---------------------------------------------------
  alpha Z        PSCENC =       469.49990953
  Ewald energy   TEWEN  =    166056.33731333
  -Hartree energ DENC   =   -193981.91720794
  -exchange      EXHF   =         0.00000000
  -V(xc)+E(xc)   XCENC  =       587.14756013
  PAW double counting   =     32278.13686279   -34184.22771058
  entropy T*S    EENTRO =        -0.04401211
  eigenvalues    EBANDS =      -760.67497431
  atomic energy  EATOM  =     29293.35706028
  Solvation contrib.  Ediel  =         0.00000000
  ---------------------------------------------------
  free energy    TOTEN  =      -242.38519888 eV

  energy without entropy =     -242.34118677  energy(sigma->0) =     -242.37419585


--------------------------------------------------------------------------------------------------------




----------------------------------------- Iteration    1(  18)  ---------------------------------------


    POTLOK:  cpu time    0.30: real time    0.30
    SETDIJ:  cpu time    0.06: real time    0.06
     EDDAV:  cpu time   26.51: real time   26.51
       DOS:  cpu time    0.00: real time    0.00
    CHARGE:  cpu time    1.03: real time    1.03
    MIXING:  cpu time    0.02: real time    0.01
    --------------------------------------------
      LOOP:  cpu time   27.91: real time   27.91

 eigenvalue-minimisations  :  4696
 total energy-change (2. order) :-0.7870136E+00  (-0.1440549E+00)
 number of electron     324.9998881 magnetization      55.2676249
 augmentation part      184.9446660 magnetization      48.6513024

 Broyden mixing:
  rms(total) = 0.70173E+00    rms(broyden)= 0.70171E+00
  rms(prec ) = 0.81838E+00
  weight for this iteration     100.00

 eigenvalues of (default mixing * dielectric matrix)
  average eigenvalue GAMMA=   0.4902
  1.7519  1.0368  1.0368  0.4844  0.4844  0.4532  0.4532  0.0604  0.1020  0.1376
  0.1324  0.1269  0.1125

 Free energy of the ion-electron system (eV)
  ---------------------------------------------------
  alpha Z        PSCENC =       469.49990953
  Ewald energy   TEWEN  =    166056.33731333
  -Hartree energ DENC   =   -193987.24847006
  -exchange      EXHF   =         0.00000000
  -V(xc)+E(xc)   XCENC  =       587.52036939
  PAW double counting   =     32272.05351049   -34177.88521606
  entropy T*S    EENTRO =        -0.02290192
  eigenvalues    EBANDS =      -756.78378746
  atomic energy  EATOM  =     29293.35706028
  Solvation contrib.  Ediel  =         0.00000000
  ---------------------------------------------------
  free energy    TOTEN  =      -243.17221248 eV

  energy without entropy =     -243.14931056  energy(sigma->0) =     -243.16648700


--------------------------------------------------------------------------------------------------------




----------------------------------------- Iteration    1(  19)  ---------------------------------------


    POTLOK:  cpu time    0.31: real time    0.31
    SETDIJ:  cpu time    0.04: real time    0.04
     EDDAV:  cpu time   30.30: real time   30.30
       DOS:  cpu time    0.00: real time    0.00
    CHARGE:  cpu time    1.07: real time    1.07
    MIXING:  cpu time    0.02: real time    0.01
    --------------------------------------------
      LOOP:  cpu time   31.74: real time   31.74

 eigenvalue-minimisations  :  4992
 total energy-change (2. order) :-0.4444760E+00  (-0.4747877E-01)
 number of electron     324.9998882 magnetization      55.4493405
 augmentation part      184.9531215 magnetization      49.0899632

 Broyden mixing:
  rms(total) = 0.82516E+00    rms(broyden)= 0.82513E+00
  rms(prec ) = 0.90644E+00
  weight for this iteration     100.00

 eigenvalues of (default mixing * dielectric matrix)
  average eigenvalue GAMMA=   0.4922
  1.4636  1.2706  1.2706  0.5532  0.5532  0.5305  0.4413  0.0604  0.1422  0.1357
  0.1357  0.1021  0.1188  0.1130

 Free energy of the ion-electron system (eV)
  ---------------------------------------------------
  alpha Z        PSCENC =       469.49990953
  Ewald energy   TEWEN  =    166056.33731333
  -Hartree energ DENC   =   -193985.64660429
  -exchange      EXHF   =         0.00000000
  -V(xc)+E(xc)   XCENC  =       587.60901603
  PAW double counting   =     32228.57442422   -34134.15591666
  entropy T*S    EENTRO =        -0.02396494
  eigenvalues    EBANDS =      -759.16792595
  atomic energy  EATOM  =     29293.35706028
  Solvation contrib.  Ediel  =         0.00000000
  ---------------------------------------------------
  free energy    TOTEN  =      -243.61668845 eV

  energy without entropy =     -243.59272351  energy(sigma->0) =     -243.61069721


--------------------------------------------------------------------------------------------------------




----------------------------------------- Iteration    1(  20)  ---------------------------------------


    POTLOK:  cpu time    0.32: real time    0.32
    SETDIJ:  cpu time    0.05: real time    0.05
     EDDAV:  cpu time   26.97: real time   26.97
       DOS:  cpu time    0.00: real time    0.00
    CHARGE:  cpu time    0.93: real time    0.92
    MIXING:  cpu time    0.01: real time    0.02
    --------------------------------------------
      LOOP:  cpu time   28.28: real time   28.29

 eigenvalue-minimisations  :  5160
 total energy-change (2. order) :-0.2311593E+00  (-0.4366453E-01)
 number of electron     324.9998884 magnetization      55.6251201
 augmentation part      184.9069184 magnetization      49.5257226

 Broyden mixing:
  rms(total) = 0.40317E+00    rms(broyden)= 0.40314E+00
  rms(prec ) = 0.43103E+00
  weight for this iteration     100.00

 eigenvalues of (default mixing * dielectric matrix)
  average eigenvalue GAMMA=   0.5393
  1.6582  1.6582  1.2863  0.6134  0.6134  0.5272  0.5272  0.4049  0.0604  0.1020
  0.1382  0.1382  0.1123  0.1247  0.1247

 Free energy of the ion-electron system (eV)
  ---------------------------------------------------
  alpha Z        PSCENC =       469.49990953
  Ewald energy   TEWEN  =    166056.33731333
  -Hartree energ DENC   =   -193983.14100799
  -exchange      EXHF   =         0.00000000
  -V(xc)+E(xc)   XCENC  =       587.64946410
  PAW double counting   =     32163.71723290   -34069.11614232
  entropy T*S    EENTRO =        -0.01861252
  eigenvalues    EBANDS =      -762.13306505
  atomic energy  EATOM  =     29293.35706028
  Solvation contrib.  Ediel  =         0.00000000
  ---------------------------------------------------
  free energy    TOTEN  =      -243.84784774 eV

  energy without entropy =     -243.82923522  energy(sigma->0) =     -243.84319461


--------------------------------------------------------------------------------------------------------




----------------------------------------- Iteration    1(  21)  ---------------------------------------


    POTLOK:  cpu time    0.33: real time    0.33
    SETDIJ:  cpu time    0.04: real time    0.04
     EDDAV:  cpu time   30.30: real time   30.30
       DOS:  cpu time    0.00: real time    0.00
    CHARGE:  cpu time    1.04: real time    1.04
    MIXING:  cpu time    0.02: real time    0.02
    --------------------------------------------
      LOOP:  cpu time   31.73: real time   31.73

 eigenvalue-minimisations  :  5584
 total energy-change (2. order) :-0.4072287E+00  (-0.3098881E-01)
 number of electron     324.9998877 magnetization      55.7207843
 augmentation part      184.9057449 magnetization      49.8185012

 Broyden mixing:
  rms(total) = 0.53738E+00    rms(broyden)= 0.53736E+00
  rms(prec ) = 0.57565E+00
  weight for this iteration     100.00

 eigenvalues of (default mixing * dielectric matrix)
  average eigenvalue GAMMA=   0.5365
  1.8343  1.8343  1.2072  0.6168  0.6168  0.5556  0.5556  0.4049  0.0604  0.1576
  0.1020  0.1357  0.1357  0.1350  0.1129  0.1185

 Free energy of the ion-electron system (eV)
  ---------------------------------------------------
  alpha Z        PSCENC =       469.49990953
  Ewald energy   TEWEN  =    166056.33731333
  -Hartree energ DENC   =   -193984.28535643
  -exchange      EXHF   =         0.00000000
  -V(xc)+E(xc)   XCENC  =       587.71229733
  PAW double counting   =     32126.06717092   -34031.40376853
  entropy T*S    EENTRO =        -0.02593659
  eigenvalues    EBANDS =      -761.51376632
  atomic energy  EATOM  =     29293.35706028
  Solvation contrib.  Ediel  =         0.00000000
  ---------------------------------------------------
  free energy    TOTEN  =      -244.25507648 eV

  energy without entropy =     -244.22913988  energy(sigma->0) =     -244.24859233


--------------------------------------------------------------------------------------------------------




----------------------------------------- Iteration    1(  22)  ---------------------------------------


    POTLOK:  cpu time    0.33: real time    0.33
    SETDIJ:  cpu time    0.05: real time    0.05
     EDDAV:  cpu time   28.30: real time   28.30
       DOS:  cpu time    0.00: real time    0.00
    CHARGE:  cpu time    1.18: real time    1.18
    MIXING:  cpu time    0.02: real time    0.02
    --------------------------------------------
      LOOP:  cpu time   29.88: real time   29.88

 eigenvalue-minimisations  :  4968
 total energy-change (2. order) :-0.5235867E-01  (-0.2118693E-01)
 number of electron     324.9998873 magnetization      55.7887526
 augmentation part      184.9197648 magnetization      50.0045614

 Broyden mixing:
  rms(total) = 0.31972E+00    rms(broyden)= 0.31970E+00
  rms(prec ) = 0.37236E+00
  weight for this iteration     100.00

 eigenvalues of (default mixing * dielectric matrix)
  average eigenvalue GAMMA=   0.5514
  1.6502  1.6502  1.5135  0.7165  0.7165  0.6349  0.6349  0.4653  0.4653  0.0604
  0.1020  0.1385  0.1385  0.1123  0.1300  0.1243  0.1211

 Free energy of the ion-electron system (eV)
  ---------------------------------------------------
  alpha Z        PSCENC =       469.49990953
  Ewald energy   TEWEN  =    166056.33731333
  -Hartree energ DENC   =   -193985.36739916
  -exchange      EXHF   =         0.00000000
  -V(xc)+E(xc)   XCENC  =       587.75543568
  PAW double counting   =     32108.91424883   -34014.29175388
  entropy T*S    EENTRO =        -0.02615278
  eigenvalues    EBANDS =      -760.48609700
  atomic energy  EATOM  =     29293.35706028
  Solvation contrib.  Ediel  =         0.00000000
  ---------------------------------------------------
  free energy    TOTEN  =      -244.30743515 eV

  energy without entropy =     -244.28128238  energy(sigma->0) =     -244.30089696


--------------------------------------------------------------------------------------------------------




----------------------------------------- Iteration    1(  23)  ---------------------------------------


    POTLOK:  cpu time    0.32: real time    0.32
    SETDIJ:  cpu time    0.04: real time    0.04
     EDDAV:  cpu time   22.26: real time   22.26
       DOS:  cpu time    0.00: real time    0.00
    CHARGE:  cpu time    0.94: real time    0.94
    MIXING:  cpu time    0.02: real time    0.02
    --------------------------------------------
      LOOP:  cpu time   23.58: real time   23.58

 eigenvalue-minimisations  :  4792
 total energy-change (2. order) :-0.7616713E-01  (-0.1280826E-01)
 number of electron     324.9998873 magnetization      55.8226725
 augmentation part      184.9569780 magnetization      50.1210406

 Broyden mixing:
  rms(total) = 0.26560E+00    rms(broyden)= 0.26560E+00
  rms(prec ) = 0.30476E+00
  weight for this iteration     100.00

 eigenvalues of (default mixing * dielectric matrix)
  average eigenvalue GAMMA=   0.5416
  1.7581  1.5777  1.5777  0.7665  0.7665  0.6243  0.6243  0.4661  0.4661  0.0604
  0.1906  0.1020  0.1427  0.1349  0.1349  0.1124  0.1243  0.1197

 Free energy of the ion-electron system (eV)
  ---------------------------------------------------
  alpha Z        PSCENC =       469.49990953
  Ewald energy   TEWEN  =    166056.33731333
  -Hartree energ DENC   =   -193989.52675828
  -exchange      EXHF   =         0.00000000
  -V(xc)+E(xc)   XCENC  =       587.74706992
  PAW double counting   =     32124.52948960   -34030.20659639
  entropy T*S    EENTRO =        -0.02311061
  eigenvalues    EBANDS =      -756.09797967
  atomic energy  EATOM  =     29293.35706028
  Solvation contrib.  Ediel  =         0.00000000
  ---------------------------------------------------
  free energy    TOTEN  =      -244.38360228 eV

  energy without entropy =     -244.36049167  energy(sigma->0) =     -244.37782463


--------------------------------------------------------------------------------------------------------




----------------------------------------- Iteration    1(  24)  ---------------------------------------


    POTLOK:  cpu time    0.29: real time    0.29
    SETDIJ:  cpu time    0.04: real time    0.04
     EDDAV:  cpu time   22.78: real time   22.78
       DOS:  cpu time    0.00: real time    0.00
    CHARGE:  cpu time    0.92: real time    0.93
    MIXING:  cpu time    0.02: real time    0.02
    --------------------------------------------
      LOOP:  cpu time   24.06: real time   24.06

 eigenvalue-minimisations  :  4864
 total energy-change (2. order) :-0.4231838E-02  (-0.4527618E-02)
 number of electron     324.9998872 magnetization      55.9486072
 augmentation part      184.9730540 magnetization      50.2884975

 Broyden mixing:
  rms(total) = 0.20300E+00    rms(broyden)= 0.20299E+00
  rms(prec ) = 0.23545E+00
  weight for this iteration     100.00

 eigenvalues of (default mixing * dielectric matrix)
  average eigenvalue GAMMA=   0.5612
  1.7071  1.6534  1.6534  0.9089  0.9089  0.6242  0.6242  0.5425  0.5425  0.4291
  0.0604  0.1020  0.1448  0.1377  0.1377  0.1124  0.1276  0.1276  0.1195

 Free energy of the ion-electron system (eV)
  ---------------------------------------------------
  alpha Z        PSCENC =       469.49990953
  Ewald energy   TEWEN  =    166056.33731333
  -Hartree energ DENC   =   -193991.06566198
  -exchange      EXHF   =         0.00000000
  -V(xc)+E(xc)   XCENC  =       587.77872336
  PAW double counting   =     32127.80628019   -34033.61646250
  entropy T*S    EENTRO =        -0.02121994
  eigenvalues    EBANDS =      -754.46377639
  atomic energy  EATOM  =     29293.35706028
  Solvation contrib.  Ediel  =         0.00000000
  ---------------------------------------------------
  free energy    TOTEN  =      -244.38783412 eV

  energy without entropy =     -244.36661418  energy(sigma->0) =     -244.38252913


--------------------------------------------------------------------------------------------------------




----------------------------------------- Iteration    1(  25)  ---------------------------------------


    POTLOK:  cpu time    0.29: real time    0.29
    SETDIJ:  cpu time    0.04: real time    0.04
     EDDAV:  cpu time   22.55: real time   22.55
       DOS:  cpu time    0.00: real time    0.00
    CHARGE:  cpu time    0.90: real time    0.90
    MIXING:  cpu time    0.02: real time    0.02
    --------------------------------------------
      LOOP:  cpu time   23.80: real time   23.81

 eigenvalue-minimisations  :  5304
 total energy-change (2. order) : 0.1039032E-01  (-0.3635347E-02)
 number of electron     324.9998876 magnetization      55.9993574
 augmentation part      184.9643155 magnetization      50.3971531

 Broyden mixing:
  rms(total) = 0.16218E+00    rms(broyden)= 0.16217E+00
  rms(prec ) = 0.17289E+00
  weight for this iteration     100.00

 eigenvalues of (default mixing * dielectric matrix)
  average eigenvalue GAMMA=   0.5502
  1.6945  1.6945  1.6871  0.9425  0.9425  0.6228  0.6228  0.5326  0.5326  0.4350
  0.2323  0.0604  0.1020  0.1123  0.1406  0.1406  0.1330  0.1330  0.1240  0.1195

 Free energy of the ion-electron system (eV)
  ---------------------------------------------------
  alpha Z        PSCENC =       469.49990953
  Ewald energy   TEWEN  =    166056.33731333
  -Hartree energ DENC   =   -193994.38382671
  -exchange      EXHF   =         0.00000000
  -V(xc)+E(xc)   XCENC  =       587.94539610
  PAW double counting   =     32117.39985572   -34023.69906435
  entropy T*S    EENTRO =        -0.01647126
[...]
 -0.000   0.000  -0.051   0.000  -0.000  -0.000  -0.000  -0.005  -0.000   0.000  -0.021   0.006  -0.000  -0.023  -0.000  -0.000
  0.001  -0.001  -0.000   0.007   0.001   0.004   0.000   0.000  -0.006  -0.000  -0.000  -0.000  -0.000  -0.000  -0.037   0.000
  0.000  -0.008   0.000  -0.000  -0.000   0.000   0.006  -0.000   0.000  -0.000   0.000   0.000   0.004  -0.000   0.000  -0.000
 -0.000  -0.000  -0.014   0.000  -0.000  -0.000   0.000   0.009   0.000  -0.000   0.003  -0.002  -0.000   0.003  -0.000   0.000
 -0.000  -0.000   0.000  -0.008  -0.000  -0.000   0.000  -0.000   0.006   0.000   0.000   0.000   0.000  -0.000   0.004  -0.000


------------------------ aborting loop because EDIFF is reached ----------------------------------------



 DIPCOR: dipole corrections for dipol
 direction  3 min pos   143,
 dipolmoment           0.000000      0.000000     -0.028050 electrons x Angstroem
 Tr[quadrupol]     -2840.822806

 energy correction for charged system         0.000000 eV
 dipol+quadrupol energy correction            0.000061 eV
 added-field ion interaction          0.000000 eV  (added to PSCEN)

 
  *************** adding dipol energy to TOTEN NOW **************** 
    CHARGE:  cpu time    1.02: real time    1.05
    FORLOC:  cpu time    0.03: real time    0.03
    FORNL :  cpu time    3.58: real time    3.58
    STRESS:  cpu time   10.85: real time   10.85
    FORCOR:  cpu time    0.37: real time    0.37
    FORHAR:  cpu time    0.06: real time    0.06
    MIXING:  cpu time    0.06: real time    0.06
    OFIELD:  cpu time    0.00: real time    0.00

  Hirshfeld-DOM and Hirshfeld charges and relative Volumes:   
            ion         q(e)           q(e)           rel_vol 
   -----------------------------------------------------------
      1     Co         -0.005          0.002          1.015
      2     Co         -0.016          0.002          1.038
      3     Co         -0.006          0.002          1.015
      4     Co          0.004          0.003          0.996
      5     Co         -0.000          0.002          1.004
      6     Co          0.007          0.003          0.988
      7     Co         -0.002          0.002          1.008
      8     Co         -0.003          0.002          1.010
      9     Co         -0.003          0.003          1.011
     10     Co         -0.003         -0.002          0.914
     11     Co          0.004         -0.002          0.899
     12     Co          0.006         -0.002          0.893
     13     Co          0.004         -0.002          0.898
     14     Co          0.002         -0.002          0.902
     15     Co          0.000         -0.002          0.905
     16     Co          0.002         -0.003          0.902
     17     Co          0.004         -0.002          0.899
     18     Co          0.000         -0.002          0.905
     19     Co          0.005          0.001          0.897
     20     Co          0.005          0.001          0.896
     21     Co          0.002         -0.003          0.894
     22     Co          0.001         -0.004          0.895
     23     Co          0.004          0.001          0.899
     24     Co         -0.001         -0.004          0.897
     25     Co          0.002         -0.003          0.894
     26     Co          0.002         -0.003          0.894
     27     Co          0.002         -0.004          0.892
     28     Co          0.010          0.013          0.994
     29     Co          0.027          0.023          0.978
     30     Co          0.011          0.013          0.989
     31     Co          0.028          0.023          0.972
     32     Co          0.028          0.023          0.974
     33     Co          0.003          0.006          0.991
     34     Co          0.001          0.006          0.996
     35     Co          0.009          0.013          0.997
     36     Co          0.001          0.006          0.994
     37     H          -0.133         -0.109          0.864

  dDsC method for vdW energy calculation
  ---------------------------------------------------------------------------------------------

  Parameters of vdW forcefield:
            C6dDsC            XDM            ALPHAts        RELVOL
            (au)              (au)            (au)                
   ---------------------------------------------------------------
   Co        433.497         10.209         50.747          1.015
   Co        447.126         10.291         51.923          1.038
   Co        433.896         10.216         50.757          1.015
   Co        423.026         10.149         49.814          0.996
   Co        427.380         10.173         50.208          1.004
   Co        418.427         10.120         49.413          0.988
   Co        429.766         10.191         50.400          1.008
   Co        430.863         10.197         50.494          1.010
   Co        431.650         10.201         50.570          1.011
   Co        292.727          7.653         45.710          0.914
   Co        287.671          7.645         44.969          0.899
   Co        285.291          7.637         44.644          0.893
   Co        287.214          7.643         44.911          0.898
   Co        288.651          7.648         45.105          0.902
   Co        289.760          7.649         45.273          0.905
   Co        288.491          7.645         45.099          0.902
   Co        287.338          7.642         44.937          0.899
   Co        289.368          7.646         45.225          0.905
   Co        284.499          7.580         44.855          0.897
   Co        284.282          7.581         44.814          0.896
   Co        282.359          7.549         44.700          0.894
   Co        282.975          7.561         44.729          0.895
   Co        285.303          7.583         44.963          0.899
   Co        283.811          7.564         44.840          0.897
   Co        282.326          7.549         44.694          0.894
   Co        282.280          7.548         44.691          0.894
   Co        281.916          7.558         44.577          0.892
   Co        417.204         10.032         49.701          0.994
   Co        395.710          9.668         48.915          0.978
   Co        413.771         10.004         49.430          0.989
   Co        392.027          9.638         48.609          0.972
   Co        393.348          9.650         48.710          0.974
   Co        415.567         10.021         49.560          0.991
   Co        418.716         10.051         49.783          0.996
   Co        419.339         10.056         49.836          0.997
   Co        417.639         10.040         49.713          0.994
   H           7.714          2.371          3.888          0.864

  IVDW =   4
  VDW_RADIUS =    50.000 A
  VDW_S6 aka ATT0 =    13.960
  VDW_SR aka BTT0 =     1.320
  LVDW_ONECELL = F F F

  Number of pair interactions contributing to vdW energy:  305709
  Edisp (eV):   -8.32829
    FORVDW:  cpu time   10.66: real time   10.66

  FORCE on cell =-STRESS in cart. coord.  units (eV):
  Direction    XX          YY          ZZ          XY          YZ          ZX
  --------------------------------------------------------------------------------------
  Alpha Z   469.49991   469.49991   469.49991
  Ewald  184333.47388184341.01833************     2.24464    -6.50383     1.79790
  Hartree190834.82318190838.47842************     1.07344    -2.69071     0.76002
  E(xc)   -1663.30338 -1663.32998 -1665.97112    -0.00646     0.03316    -0.01039
  Local  ************************383320.48016    -3.46138     9.52423    -2.69488
  n-local  -188.60730  -188.43144  -212.75511     0.10287    -0.23007     0.02631
  augment  5602.72963  5603.09821  5600.38661     0.11446    -0.35145     0.13513
  Kinetic  2731.65843  2731.99673  2755.84342     0.09030    -0.35589     0.12004
  Fock        0.00000     0.00000     0.00000     0.00000     0.00000     0.00000
  vdW       -10.16245   -10.18548    -6.45009    -0.02033    -0.00275     0.00415
  -------------------------------------------------------------------------------------
  Total     -19.33775   -19.04576   -10.44672     0.13753    -0.57731     0.13830
  in kB     -26.37865   -25.98034   -14.25038     0.18761    -0.78750     0.18865
  external pressure =      -22.20 kB  Pullay stress =        0.00 kB


 VOLUME and BASIS-vectors are now :
 -----------------------------------------------------------------------------
  energy-cutoff  :      400.00
  volume of cell :     1174.53
      direct lattice vectors                 reciprocal lattice vectors
     7.410000000  0.000000000  0.000000000     0.134952767  0.077914995  0.000000000
    -3.705000000  6.417250000  0.000000000     0.000000000  0.155829989  0.000000000
     0.000000000  0.000000000 24.700000000     0.000000000  0.000000000  0.040485830

  length of vectors
     7.410000000  7.410001522 24.700000000     0.155830021  0.155829989  0.040485830


 FORCES acting on ions
    electron-ion (+dipol)            ewald-force                    non-local-force                 convergence-correction
 -----------------------------------------------------------------------------------------------
   -.136E+00 -.558E-01 0.280E+04   0.137E+00 0.580E-01 -.280E+04   -.669E-02 -.124E-02 -.124E+01   -.123E-02 -.228E-03 0.749E-04
   0.110E+00 -.721E-01 0.280E+04   -.113E+00 0.727E-01 -.280E+04   0.470E-02 -.134E-02 -.124E+01   0.131E-02 0.158E-02 -.694E-03
   0.212E-01 -.125E+00 0.280E+04   -.229E-01 0.114E+00 -.280E+04   0.122E-03 -.202E-03 -.117E+01   -.788E-04 0.228E-03 0.166E-03
   -.131E-01 0.138E-01 0.280E+04   0.113E-01 -.967E-02 -.280E+04   0.154E-01 -.685E-02 -.119E+01   -.104E-02 -.136E-02 -.663E-03
   -.259E-01 0.147E+00 0.280E+04   0.236E-01 -.146E+00 -.280E+04   -.954E-03 0.906E-02 -.124E+01   0.160E-02 0.263E-03 -.536E-03
   0.344E-01 0.254E-01 0.280E+04   -.330E-01 -.229E-01 -.280E+04   -.169E-01 -.580E-02 -.119E+01   -.560E-03 -.591E-03 -.108E-03
   0.110E+00 0.515E-01 0.280E+04   -.102E+00 -.423E-01 -.280E+04   0.138E-02 0.160E-02 -.117E+01   0.168E-02 0.812E-03 -.930E-03
   -.117E+00 0.783E-01 0.280E+04   0.105E+00 -.686E-01 -.280E+04   -.232E-02 0.186E-02 -.117E+01   -.211E-03 -.128E-03 0.306E-03
   0.187E-02 -.295E-01 0.280E+04   -.931E-03 0.315E-01 -.280E+04   -.137E-02 0.185E-01 -.119E+01   -.147E-02 -.568E-03 -.632E-03
   -.116E+01 -.935E+00 0.948E+03   0.112E+01 0.933E+00 -.948E+03   0.261E-01 0.162E-01 -.379E+00   -.515E-03 -.239E-03 -.117E-03
   0.107E-01 -.973E+00 0.946E+03   -.137E-01 0.955E+00 -.946E+03   -.672E-05 0.259E-01 -.333E+00   -.150E-02 0.562E-03 -.126E-03
   0.143E+01 -.113E+01 0.948E+03   -.140E+01 0.113E+01 -.948E+03   -.258E-01 0.161E-01 -.379E+00   0.201E-02 0.156E-02 -.101E-02
   -.613E+00 0.739E-01 0.947E+03   0.584E+00 -.433E-01 -.947E+03   0.204E-01 -.125E-01 -.331E+00   -.502E-03 -.135E-02 -.308E-03
   0.608E+00 0.101E+00 0.946E+03   -.587E+00 -.728E-01 -.946E+03   -.211E-01 -.127E-01 -.332E+00   0.109E-02 0.722E-03 -.153E-02
   0.313E+00 -.953E+00 0.947E+03   -.318E+00 0.101E+01 -.947E+03   0.449E-03 -.255E-01 -.426E+00   -.587E-03 -.131E-02 -.989E-03
   0.721E+00 0.151E-02 0.947E+03   -.765E+00 -.939E-02 -.947E+03   0.226E-01 0.137E-01 -.425E+00   -.611E-03 -.722E-03 -.468E-03
   0.292E-01 0.125E+01 0.948E+03   -.358E-01 -.121E+01 -.948E+03   -.161E-04 -.293E-01 -.377E+00   0.231E-02 0.839E-03 -.101E-02
   -.438E+00 0.149E+00 0.947E+03   0.474E+00 -.159E+00 -.947E+03   -.221E-01 0.140E-01 -.425E+00   -.170E-02 -.664E-04 -.793E-03
   -.194E+01 -.474E+00 -.914E+03   0.200E+01 0.491E+00 0.914E+03   -.571E-01 -.217E-01 0.168E+00   -.167E-02 -.709E-03 -.120E-02
   0.117E+01 -.762E+00 -.914E+03   -.121E+01 0.782E+00 0.914E+03   0.479E-01 -.189E-01 0.166E+00   0.119E-03 0.365E-03 -.123E-02
   0.529E+00 -.271E+01 -.907E+03   -.536E+00 0.273E+01 0.906E+03   0.106E-02 -.112E-01 0.389E+00   0.155E-02 -.120E-03 -.158E-02
   0.718E-01 -.295E-01 -.911E+03   0.342E-01 -.324E-01 0.911E+03   -.109E+00 0.745E-01 0.170E+00   -.569E-03 -.176E-02 -.662E-03
   -.437E+00 0.189E+01 -.914E+03   0.447E+00 -.196E+01 0.914E+03   -.724E-02 0.629E-01 0.169E+00   0.151E-03 -.253E-03 -.138E-02
   0.907E-01 0.429E+00 -.911E+03   -.190E+00 -.499E+00 0.911E+03   0.100E+00 0.746E-01 0.167E+00   0.413E-03 0.789E-04 -.188E-02
   0.224E+01 0.143E+01 -.907E+03   -.225E+01 -.144E+01 0.906E+03   0.134E-01 0.191E-01 0.389E+00   0.110E-02 0.683E-03 -.744E-03
   -.255E+01 0.186E+01 -.907E+03   0.258E+01 -.189E+01 0.906E+03   -.229E-01 0.247E-01 0.391E+00   0.574E-03 0.151E-02 -.194E-02
   -.120E+00 0.774E-01 -.911E+03   0.128E+00 0.356E-01 0.911E+03   -.100E-01 -.115E+00 0.168E+00   -.167E-02 0.216E-03 -.854E-03
   0.414E+01 0.257E+01 -.279E+04   -.427E+01 -.266E+01 0.279E+04   0.119E+00 0.856E-01 0.146E+01   0.156E-03 0.492E-03 -.556E-03
   0.742E-01 0.296E+02 -.279E+04   -.721E-01 -.305E+02 0.279E+04   -.826E-02 0.892E+00 0.128E+01   -.103E-02 0.333E-04 0.314E-03
   -.434E+01 0.255E+01 -.279E+04   0.447E+01 -.264E+01 0.279E+04   -.127E+00 0.830E-01 0.146E+01   0.905E-03 0.289E-03 0.380E-03
   0.253E+02 -.147E+02 -.279E+04   -.261E+02 0.152E+02 0.279E+04   0.753E+00 -.433E+00 0.129E+01   -.930E-03 -.907E-03 0.340E-03
   -.256E+02 -.149E+02 -.279E+04   0.263E+02 0.153E+02 0.279E+04   -.770E+00 -.430E+00 0.129E+01   0.179E-03 -.153E-03 0.498E-03
   0.202E+00 -.179E+01 -.279E+04   -.204E+00 0.186E+01 0.279E+04   0.148E-02 -.677E-01 0.137E+01   0.757E-03 -.596E-03 0.941E-04
   0.175E+01 0.112E+01 -.280E+04   -.182E+01 -.117E+01 0.279E+04   0.731E-01 0.547E-01 0.138E+01   -.337E-03 -.454E-03 0.862E-03
   0.615E-01 -.489E+01 -.279E+04   -.645E-01 0.503E+01 0.279E+04   0.438E-02 -.135E+00 0.146E+01   0.354E-03 0.696E-03 0.380E-03
   -.158E+01 0.116E+01 -.279E+04   0.166E+01 -.121E+01 0.279E+04   -.715E-01 0.559E-01 0.138E+01   -.139E-04 0.624E-03 0.925E-04
   -.880E-02 -.594E-01 -.395E+03   0.110E-01 0.664E-01 0.397E+03   -.538E-03 -.351E-02 -.158E+01   -.112E-03 -.313E-04 0.194E-03
 -----------------------------------------------------------------------------------------------
   0.448E-02 -.853E-02 0.143E+01   -.107E-12 -.215E-12 -.188E-11   -.764E-01 0.212E+00 -.122E+01   -.690E-04 0.477E-07 -.182E-01
 
 
 POSITION                                       TOTAL-FORCE (eV/Angst)
 -----------------------------------------------------------------------------------
      1.23500      0.71303      0.00000        -0.004465     -0.004620      0.457521
      3.70500      0.71303      0.00000         0.004847     -0.004505      0.457643
      6.17500      0.71303      0.00000         0.000150     -0.015816      0.461635
     -0.00000      2.85211      0.00000         0.014253     -0.009402      0.464298
      2.47000      2.85211      0.00000         0.000124      0.004888      0.458335
      4.94000      2.85211      0.00000        -0.014268     -0.009231      0.463836
      1.23500      4.99118      0.00000         0.012536      0.006112      0.462128
      3.70500      4.99118      0.00000        -0.012098      0.005944      0.461867
     -1.23500      4.99118      0.00000        -0.000115      0.014406      0.463772
      0.00000      0.00000      2.01675        -0.004374      0.007678     -0.478711
      2.47000      0.00000      2.01675        -0.002251      0.003254     -0.445615
      4.94000      0.00000      2.01675        -0.000187      0.008647     -0.476546
      1.23500      2.13908      2.01675        -0.006948      0.011139     -0.446395
      3.70500      2.13908      2.01675         0.003142      0.011067     -0.443061
      6.17500      2.13908      2.01675        -0.003441      0.028255     -0.445152
      0.00000      4.27816      2.01675        -0.019122     -0.000543     -0.445652
      2.47000      4.27816      2.01675        -0.002142      0.009209     -0.475267
      4.94000      4.27816      2.01675         0.014150     -0.001321     -0.443819
      1.22822      0.73298      4.06429         0.005829     -0.010665     -0.003661
      3.69585      0.73264      4.06483         0.005716     -0.003364     -0.011095
      6.16845      0.73048      4.05612        -0.002186     -0.002133     -0.003233
     -0.00483      2.86965      4.05875        -0.001442      0.005132      0.005396
      2.46193      2.86978      4.06455         0.004537     -0.008005     -0.004834
      4.92992      2.87011      4.05953         0.002309     -0.001661     -0.002530
      1.22869      5.01122      4.05586         0.004495     -0.004205     -0.001144
      3.69578      5.01162      4.05604         0.002943     -0.004144     -0.000338
     -1.24269      5.01274      4.05912        -0.002299     -0.005683     -0.000326
      7.39742      0.02089      5.99292         0.000200     -0.001435      0.000145
      2.46233      0.01913      6.03085        -0.005095     -0.000817     -0.004253
      4.93708      0.02138      5.99232         0.001586     -0.005898      0.000222
      1.22311      2.16448      6.03075        -0.001571     -0.008987      0.003597
      3.70131      2.16387      6.03049        -0.006034     -0.002826      0.003434
     -1.24214      2.16299      5.99314         0.002447      0.000722     -0.009271
     -0.00571      4.30289      5.99339         0.000058     -0.004455     -0.006026
      2.46337      4.30570      5.99217         0.003882     -0.003573      0.001651
     -2.47766      4.30239      5.99317         0.000920     -0.000797     -0.005170
      2.46167      1.44795      7.02646         0.003913     -0.002366     -0.013383
 -----------------------------------------------------------------------------------
    total drift:                               -0.071993      0.203736      0.191381


--------------------------------------------------------------------------------------------------------



  FREE ENERGIE OF THE ION-ELECTRON SYSTEM (eV)
  ---------------------------------------------------
  free  energy   TOTEN  =      -252.88075328 eV

  energy  without entropy=     -252.87975466  energy(sigma->0) =     -252.88050363
 


--------------------------------------------------------------------------------------------------------


    POTLOK:  cpu time    0.31: real time    0.31


--------------------------------------------------------------------------------------------------------


 stress matrix after NEB project (eV)
    -19.33775      0.13753      0.13830
      0.13753    -19.04576     -0.57731
      0.13830     -0.57731    -10.44672
  FORCES: max atom, RMS     0.014143    0.005870
  FORCE total and by dimension    0.035705    0.013383
  Stress total and by dimension   29.095815   19.337755


--------------------------------------------------------------------------------------------------------


  
 reached required accuracy - stopping structural energy minimisation
     LOOP+:  cpu time 1493.75: real time 1494.02
    4ORBIT:  cpu time    0.00: real time    0.10

 total amount of memory used by VASP on root node   170931. kBytes
========================================================================

   base      :      30000. kBytes
   nonlr-proj:       8696. kBytes
   fftplans  :       6203. kBytes
   grid      :      26251. kBytes
   one-center:       1150. kBytes
   wavefun   :      98631. kBytes
 
  
  
 General timing and accounting informations for this job:
 ========================================================
  
                  Total CPU time used (sec):     1499.760
                            User time (sec):     1498.824
                          System time (sec):        0.936
                         Elapsed time (sec):     1501.625
  
                   Maximum memory used (kb):      214176.
                   Average memory used (kb):           0.
  
                          Minor page faults:       256294
                          Major page faults:           79
                 Voluntary context switches:          983
