 vasp.5.3.5 31Mar14 (build Jan 31 2018 16:04:57) complex                        
  
 executed on             LinuxIFC date 2018.12.17  16:10:49
 running on    8 total cores
 distrk:  each k-point on    8 cores,    1 groups
 distr:  one band on NCORES_PER_BAND=   1 cores,    8 groups


--------------------------------------------------------------------------------------------------------


 INCAR:
 POTCAR:    PAW_PBE Co 02Aug2007                  

 ----------------------------------------------------------------------------- 
|                                                                             |
|           W    W    AA    RRRRR   N    N  II  N    N   GGGG   !!!           |
|           W    W   A  A   R    R  NN   N  II  NN   N  G    G  !!!           |
|           W    W  A    A  R    R  N N  N  II  N N  N  G       !!!           |
|           W WW W  AAAAAA  RRRRR   N  N N  II  N  N N  G  GGG   !            |
|           WW  WW  A    A  R   R   N   NN  II  N   NN  G    G                |
|           W    W  A    A  R    R  N    N  II  N    N   GGGG   !!!           |
|                                                                             |
|      For optimal performance we recommend to set                            |
|        NCORE= 4 - approx SQRT( number of cores)                             |
|      NCORE specifies how many cores store one orbital (NPAR=cpu/NCORE).     |
|      This setting can  greatly improve the performance of VASP for DFT.     |
|      The default, NPAR=number of cores might be grossly inefficient         |
|      on modern multi-core architectures or massively parallel machines.     |
|      Do your own testing !!!!                                               |
|      Unfortunately you need to use the default for GW and RPA calculations. |
|      (for HF NCORE is supported but not extensively tested yet)             |
|                                                                             |
 ----------------------------------------------------------------------------- 

 POTCAR:    PAW_PBE Co 02Aug2007                  
   VRHFIN =Co: d8 s1                                                            
   LEXCH  = PE                                                                  
   EATOM  =   813.3670 eV,   59.7808 Ry                                         
                                                                                
   TITEL  = PAW_PBE Co 02Aug2007                                                
   LULTRA =        F    use ultrasoft PP ?                                      
   IUNSCR =        1    unscreen: 0-lin 1-nonlin 2-no                           
   RPACOR =    2.000    partial core radius                                     
   POMASS =   58.933; ZVAL   =    9.000    mass and valenz                      
   RCORE  =    2.300    outmost cutoff radius                                   
   RWIGS  =    2.460; RWIGS  =    1.302    wigner-seitz radius (au A)           
   ENMAX  =  267.968; ENMIN  =  200.976 eV                                      
   RCLOC  =    1.203    cutoff for local pot                                    
   LCOR   =        T    correct aug charges                                     
   LPAW   =        T    paw PP                                                  
   EAUG   =  477.818                                                            
   DEXC   =    0.000                                                            
   RMAX   =    2.360    core radius for proj-oper                               
   RAUG   =    1.300    factor for augmentation sphere                          
   RDEP   =    2.393    radius for radial grids                                 
   RDEPT  =    1.864    core radius for aug-charge                              
                                                                                
   Atomic configuration                                                         
    9 entries                                                                   
     n  l   j            E        occ.                                          
     1  0  0.50     -7587.6674   2.0000                                         
     2  0  0.50      -893.6084   2.0000                                         
     2  1  1.50      -764.5805   6.0000                                         
     3  0  0.50       -97.5973   2.0000                                         
     3  1  1.50       -60.9648   6.0000                                         
     3  2  2.50        -4.2382   8.0000                                         
     4  0  0.50        -4.3746   1.0000                                         
     4  1  1.50        -4.0817   0.0000                                         
     4  3  2.50        -1.3606   0.0000                                         
   Description                                                                  
     l       E           TYP  RCUT    TYP  RCUT                                 
     2     -4.2382362     23  2.300                                             
     2     -5.5988188     23  2.300                                             
     0     -4.3745797     23  2.300                                             
     0      5.7660125     23  2.300                                             
     1     -2.7211652     23  2.300                                             
     1     16.9860234     23  2.300                                             
  local pseudopotential read in
  partial core-charges read in
  partial kinetic energy density read in
  atomic valenz-charges read in
  non local Contribution for L=           2  read in
    real space projection operators read in
  non local Contribution for L=           2  read in
    real space projection operators read in
  non local Contribution for L=           0  read in
    real space projection operators read in
  non local Contribution for L=           0  read in
    real space projection operators read in
  non local Contribution for L=           1  read in
    real space projection operators read in
  non local Contribution for L=           1  read in
    real space projection operators read in
    PAW grid and wavefunctions read in
 
   number of l-projection  operators is LMAX  =           6
   number of lm-projection operators is LMMAX =          18
 
 Optimization of the real space projectors (new method)

 maximal supplied QI-value         = 16.25
 optimisation between [QCUT,QGAM] = [ 10.24, 20.48] = [ 29.35,117.42] Ry 
 Optimized for a Real-space Cutoff    1.34 Angstroem

   l    n(q)    QCUT    max X(q) W(low)/X(q) W(high)/X(q)  e(spline) 
   2      7    10.239    65.824    0.41E-03    0.10E-02    0.11E-06
   2      7    10.239    61.429    0.41E-03    0.10E-02    0.11E-06
   0      8    10.239    56.174    0.42E-03    0.17E-03    0.96E-07
   0      8    10.239    31.263    0.38E-03    0.16E-03    0.87E-07
   1      8    10.239    19.828    0.20E-03    0.56E-03    0.13E-06
   1      8    10.239    15.139    0.15E-03    0.46E-03    0.11E-06
  PAW_PBE Co 02Aug2007                  :
 energy of atom  1       EATOM= -813.3670
 kinetic energy error for atom=    0.0093 (will be added to EATOM!!)
 
 
 POSCAR: Co                                      
  positions in direct lattice
  velocities in cartesian coordinates
 exchange correlation table for  LEXCH =        8
   RHO(1)=    0.500       N(1)  =     2000
   RHO(2)=  100.500       N(2)  =     4000

 VTST: version 3.1, (03/28/14)

 CHAIN: initializing optimizer
 
 OPT: Using VASP Conjugate-Gradient optimizer
 CHAIN: Read ICHAIN            0
 
 POSCAR: Co                                      
  positions in direct lattice
  velocities in cartesian coordinates
 


--------------------------------------------------------------------------------------------------------


 ion  position               nearest neighbor table
   1  0.222  0.111  0.000-   4 2.47   5 2.47  13 2.47   3 2.47   2 2.47  10 2.47  11 2.47   9 2.47
                             8 2.47
   2  0.556  0.111  0.000-   5 2.47   6 2.47  14 2.47   3 2.47   1 2.47  12 2.47  11 2.47   9 2.47
                             7 2.47
   3  0.889  0.111  0.000-   4 2.47   6 2.47  15 2.47   1 2.47   2 2.47  10 2.47  12 2.47   8 2.47
                             7 2.47
   4  0.222  0.444  0.000-   9 2.47   7 2.47   3 2.47   1 2.47   6 2.47   5 2.47  16 2.47  15 2.47
                            13 2.47
   5  0.556  0.444  0.000-   7 2.47   8 2.47   1 2.47   2 2.47   4 2.47   6 2.47  17 2.47  14 2.47
                            13 2.47
   6  0.889  0.444  0.000-   9 2.47   8 2.47   2 2.47   3 2.47   4 2.47   5 2.47  18 2.47  15 2.47
                            14 2.47
   7  0.556  0.778  0.000-   5 2.47   4 2.47  16 2.47  17 2.47   8 2.47   9 2.47  12 2.47   3 2.47
                             2 2.47
   8  0.889  0.778  0.000-   5 2.47   6 2.47  17 2.47  18 2.47   7 2.47   9 2.47  10 2.47   3 2.47
                             1 2.47
   9  0.222  0.778  0.000-   4 2.47   6 2.47  18 2.47  16 2.47   7 2.47   8 2.47  11 2.47   2 2.47
                             1 2.47
  10  0.000  0.000  0.082-  13 2.47  15 2.47  11 2.47  12 2.47  17 2.47  18 2.47   1 2.47   3 2.47
                             8 2.47  19 2.49  26 2.49  21 2.49
  11  0.333  0.000  0.082-  14 2.47  13 2.47  12 2.47  10 2.47  16 2.47  18 2.47   2 2.47   1 2.47
                             9 2.47  27 2.49  19 2.49  20 2.49
  12  0.667  0.000  0.082-  14 2.47  15 2.47  11 2.47  10 2.47  16 2.47  17 2.47   2 2.47   3 2.47
                             7 2.47  25 2.49  21 2.49  20 2.49
  13  0.333  0.333  0.082-  10 2.47  11 2.47   1 2.47  14 2.47  15 2.47  16 2.47  17 2.47   5 2.47
                             4 2.47  19 2.49  22 2.49  23 2.49
  14  0.667  0.333  0.082-  11 2.47  12 2.47   2 2.47  13 2.47  15 2.47  17 2.47  18 2.47   5 2.47
                             6 2.47  23 2.49  24 2.49  20 2.49
  15  1.000  0.333  0.082-  10 2.47  12 2.47   3 2.47  13 2.47  14 2.47  18 2.47  16 2.47   4 2.47
                             6 2.47  22 2.49  21 2.49  24 2.49
  16  0.333  0.667  0.082-   7 2.47   9 2.47  17 2.47  18 2.47  13 2.47  15 2.47   4 2.47  12 2.47
                            11 2.47  25 2.49  27 2.49  22 2.49
  17  0.667  0.667  0.082-   7 2.47   8 2.47  16 2.47  18 2.47  13 2.47  14 2.47   5 2.47  10 2.47
                            12 2.47  26 2.49  25 2.49  23 2.49
  18  1.000  0.667  0.082-   9 2.47   8 2.47  16 2.47  17 2.47  15 2.47  14 2.47   6 2.47  10 2.47
                            11 2.47  27 2.49  26 2.49  24 2.49
  19  0.222  0.111  0.164-  31 2.41  28 2.41  29 2.41  23 2.47  21 2.47  26 2.47  27 2.47  20 2.47
                            22 2.47  10 2.49  13 2.49  11 2.49
  20  0.556  0.111  0.164-  32 2.41  29 2.41  30 2.41  24 2.47  23 2.47  21 2.47  19 2.47  25 2.47
                            27 2.47  14 2.49  12 2.49  11 2.49
  21  0.889  0.111  0.164-  33 2.41  30 2.41  28 2.41  24 2.47  20 2.47  26 2.47  19 2.47  22 2.47
                            25 2.47  12 2.49  15 2.49  10 2.49
  22  0.222  0.444  0.164-  34 2.41  33 2.41  31 2.41  27 2.47  25 2.47  21 2.47  19 2.47  23 2.47
                            24 2.47  16 2.49  15 2.49  13 2.49
  23  0.556  0.444  0.164-  32 2.41  35 2.41  31 2.41  20 2.47  24 2.47  19 2.47  26 2.47  22 2.47
                            25 2.47  14 2.49  13 2.49  17 2.49
  24  0.889  0.444  0.164-  32 2.41  36 2.41  33 2.41  20 2.47  23 2.47  21 2.47  26 2.47  22 2.47
                            27 2.47  14 2.49  15 2.49  18 2.49
  25  0.556  0.778  0.164-  34 2.41  30 2.41  35 2.41  27 2.47  22 2.47  21 2.47  26 2.47  23 2.47
                            20 2.47  16 2.49  12 2.49  17 2.49
  26  0.889  0.778  0.164-  35 2.41  28 2.41  36 2.41  21 2.47  19 2.47  27 2.47  23 2.47  25 2.47
                            24 2.47  17 2.49  10 2.49  18 2.49
  27  0.222  0.778  0.164-  29 2.41  36 2.41  34 2.41  25 2.47  22 2.47  19 2.47  26 2.47  24 2.47
                            20 2.47  18 2.49  11 2.49  16 2.49
  28  0.000  1.000  0.243-  26 2.41  19 2.41  21 2.41  31 2.47  33 2.47  35 2.47  30 2.47  36 2.47
                            29 2.47
  29  0.333  1.000  0.243-  20 2.41  27 2.41  19 2.41  30 2.47  34 2.47  31 2.47  32 2.47  28 2.47
                            36 2.47
  30  0.667  1.000  0.243-  21 2.41  20 2.41  25 2.41  33 2.47  29 2.47  28 2.47  35 2.47  34 2.47
                            32 2.47
  31  0.333  0.333  0.243-  23 2.41  19 2.41  22 2.41  32 2.47  28 2.47  29 2.47  33 2.47  34 2.47
                            35 2.47
  32  0.667  0.333  0.243-  24 2.41  20 2.41  23 2.41  35 2.47  31 2.47  36 2.47  29 2.47  33 2.47
                            30 2.47
  33  1.000  0.333  0.243-  21 2.41  24 2.41  22 2.41  30 2.47  28 2.47  36 2.47  31 2.47  34 2.47
                            32 2.47
  34  0.333  0.667  0.243-  22 2.41  25 2.41  27 2.41  36 2.47  29 2.47  35 2.47  31 2.47  33 2.47
                            30 2.47
  35  0.667  0.667  0.243-  23 2.41  26 2.41  25 2.41  32 2.47  28 2.47  34 2.47  30 2.47  36 2.47
                            31 2.47
  36  0.000  0.667  0.243-  24 2.41  27 2.41  26 2.41  32 2.47  34 2.47  33 2.47  35 2.47  28 2.47
                            29 2.47
 
  LATTYP: Found a hexagonal cell.
 ALAT       =     7.4100015225
 C/A-ratio  =     3.3333326485
  
  Lattice vectors:
  
 A1 = (   7.4100000000,   0.0000000000,   0.0000000000)
 A2 = (  -3.7050000000,   6.4172500001,   0.0000000000)
 A3 = (   0.0000000000,   0.0000000000,  24.7000000000)


Analysis of symmetry for initial positions (statically):
=====================================================================
 Subroutine PRICEL returns:
 Original cell was already a primitive cell.
 

 Routine SETGRP: Setting up the symmetry group for a 
 hexagonal supercell.


 Subroutine GETGRP returns: Found  1 space group operations
 (whereof  1 operations were pure point group operations)
 out of a pool of 24 trial point group operations.


The static configuration has the point symmetry C_1 .


Analysis of symmetry for dynamics (positions and initial velocities):
=====================================================================
 Subroutine PRICEL returns:
 Original cell was already a primitive cell.
 

 Routine SETGRP: Setting up the symmetry group for a 
 hexagonal supercell.


 Subroutine GETGRP returns: Found  1 space group operations
 (whereof  1 operations were pure point group operations)
 out of a pool of 24 trial point group operations.


The dynamic configuration has the point symmetry C_1 .


Analysis of constrained symmetry for selective dynamics:
=====================================================================
 Subroutine PRICEL returns:
 Original cell was already a primitive cell.
 

 Routine SETGRP: Setting up the symmetry group for a 
 hexagonal supercell.


 Subroutine GETGRP returns: Found  1 space group operations
 (whereof  1 operations were pure point group operations)
 out of a pool of 24 trial point group operations.


The constrained configuration has the point symmetry C_1 .


Analysis of magnetic symmetry:
=====================================================================
 Subroutine PRICEL returns:
 Original cell was already a primitive cell.
 

 Subroutine MAGSYM returns: Found  1 space group operations
 (whereof  1 operations were pure point group operations)
 out of a pool of  1 trial space group operations
 (whereof  1 operations were pure point group operations)
 and found also     1 'primitive' translations


The magnetic configuration has the point symmetry C_1 .
 
 
 KPOINTS:  Automatic mesh                         

Automatic generation of k-mesh.
Space group operators:
 irot       det(A)        alpha          n_x          n_y          n_z        tau_x        tau_y        tau_z
    1     1.000000     0.000000     1.000000     0.000000     0.000000     0.000000     0.000000     0.000000
 
 Subroutine IBZKPT returns following result:
 ===========================================
 
 Found      5 irreducible k-points:
 
 Following reciprocal coordinates:
            Coordinates               Weight
  0.000000  0.000000  0.000000      1.000000
  0.333333  0.000000  0.000000      2.000000
  0.000000  0.333333  0.000000      2.000000
  0.333333  0.333333  0.000000      2.000000
 -0.333333  0.333333  0.000000      2.000000
 
 Following cartesian coordinates:
            Coordinates               Weight
  0.000000  0.000000  0.000000      1.000000
  0.111111  0.064150  0.000000      2.000000
  0.000000  0.128300  0.000000      2.000000
  0.111111  0.192450  0.000000      2.000000
 -0.111111  0.064150  0.000000      2.000000
 


--------------------------------------------------------------------------------------------------------




 Dimension of arrays:
   k-points           NKPTS =      5   k-points in BZ     NKDIM =      5   number of bands    NBANDS=    224
   number of dos      NEDOS =    301   number of ions     NIONS =     36
   non local maximal  LDIM  =      6   non local SUM 2l+1 LMDIM =     18
   total plane-waves  NPLWV = 163296
   max r-space proj   IRMAX =   1452   max aug-charges    IRDMAX=   5682
   dimension x,y,z NGX =    36 NGY =   36 NGZ =  126
   dimension x,y,z NGXF=    72 NGYF=   72 NGZF=  252
   support grid    NGXF=    72 NGYF=   72 NGZF=  252
   ions per type =              36
 NGX,Y,Z   is equivalent  to a cutoff of   8.08,  8.08,  8.48 a.u.
 NGXF,Y,Z  is equivalent  to a cutoff of  16.15, 16.15, 16.96 a.u.


 I would recommend the setting:
   dimension x,y,z NGX =    36 NGY =   36 NGZ =  121
 SYSTEM =  unknown system                          
 POSCAR =  Co                                      

 Startparameter for this run:
   NWRITE =      2    write-flag & timer
   PREC   = normal    normal or accurate (medium, high low for compatibility)
   ISTART =      0    job   : 0-new  1-cont  2-samecut
   ICHARG =      2    charge: 1-file 2-atom 10-const
   ISPIN  =      2    spin polarized calculation?
   LNONCOLLINEAR =      F non collinear calculations
   LSORBIT =      F    spin-orbit coupling
   INIWAV =      1    electr: 0-lowe 1-rand  2-diag
   LASPH  =      F    aspherical Exc in radial PAW
   METAGGA=      F    non-selfconsistent MetaGGA calc.
   LSOL =      F    Solvation

 Electronic Relaxation 1
   ENCUT  =  400.0 eV  29.40 Ry    5.42 a.u.  12.08 12.08 40.28*2*pi/ulx,y,z
   ENINI  =  400.0     initial cutoff
   ENAUG  =  644.9 eV  augmentation charge cutoff
   NELM   =     60;   NELMIN=  2; NELMDL= -5     # of ELM steps 
   EDIFF  = 0.1E-05   stopping-criterion for ELM
   LREAL  =      T    real-space projection
   NLSPLINE    = F    spline interpolate recip. space projectors
   LCOMPAT=      F    compatible to vasp.4.4
   GGA_COMPAT  = T    GGA compatible to vasp.4.4-vasp.4.6
   LMAXPAW     = -100 max onsite density
   LMAXMIX     =    2 max onsite mixed and CHGCAR
   VOSKOWN=      0    Vosko Wilk Nusair interpolation
   ROPT   =   -0.00050
 Ionic relaxation
   EDIFFG = -.1E-01   stopping-criterion for IOM
   NSW    =    300    number of steps for IOM
   NBLOCK =      1;   KBLOCK =    300    inner block; outer block 
   IBRION =      2    ionic relax: 0-MD 1-quasi-New 2-CG
   NFREE  =      1    steps in history (QN), initial steepest desc. (CG)
   ISIF   =      2    stress and relaxation
   IWAVPR =     11    prediction:  0-non 1-charg 2-wave 3-comb
   ISYM   =      2    0-nonsym 1-usesym 2-fastsym
   LCORR  =      T    Harris-Foulkes like correction to forces

   POTIM  = 0.5000    time-step for ionic-motion
   TEIN   =    0.0    initial temperature
   TEBEG  =    0.0;   TEEND  =   0.0 temperature during run
   SMASS  =  -3.00    Nose mass-parameter (am)
   estimated Nose-frequenzy (Omega)   =  0.10E-29 period in steps =****** mass=  -0.125E-26a.u.
   SCALEE = 1.0000    scale energy and forces
   NPACO  =    256;   APACO  = 16.0  distance and # of slots for P.C.
   PSTRESS=    0.0 pullay stress

  Mass of Ions in am
   POMASS =  58.93
  Ionic Valenz
   ZVAL   =   9.00
  Atomic Wigner-Seitz radii
   RWIGS  =  -1.00
  virtual crystal weights 
   VCA    =   1.00
   NELECT =     324.0000    total number of electrons
   NUPDOWN=      -1.0000    fix difference up-down

 DOS related values:
   EMIN   =  10.00;   EMAX   =-10.00  energy-range for DOS
   EFERMI =   0.00
   ISMEAR =     2;   SIGMA  =   0.20  broadening in eV -4-tet -1-fermi 0-gaus

 Electronic relaxation 2 (details)
   IALGO  =     38    algorithm
   LDIAG  =      T    sub-space diagonalisation (order eigenvalues)
   LSUBROT=      F    optimize rotation matrix (better conditioning)
   TURBO    =      0    0=normal 1=particle mesh
   IRESTART =      0    0=no restart 2=restart with 2 vectors
   NREBOOT  =      0    no. of reboots
   NMIN     =      0    reboot dimension
   EREF     =   0.00    reference energy to select bands
   IMIX   =      4    mixing-type and parameters
     AMIX     =   0.40;   BMIX     =  1.00
     AMIX_MAG =   1.60;   BMIX_MAG =  1.00
     AMIN     =   0.10
     WC   =   100.;   INIMIX=   1;  MIXPRE=   1;  MAXMIX= -45

 Intra band minimization:
   WEIMIN = 0.0010     energy-eigenvalue tresh-hold
   EBREAK =  0.11E-08  absolut break condition
   DEPER  =   0.30     relativ break condition  

   TIME   =   0.40     timestep for ELM

  volume/ion in A,a.u.               =      32.63       220.17
  Fermi-wavevector in a.u.,A,eV,Ry     =   1.065700  2.013882 15.452372  1.135717
  Thomas-Fermi vector in A             =   2.201261
 
 Write flags
   LWAVE  =      F    write WAVECAR
   LCHARG =      F    write CHGCAR
   LVTOT  =      F    write LOCPOT, total local potential
   LVHAR  =      F    write LOCPOT, Hartree potential only
   LELF   =      F    write electronic localiz. function (ELF)
   LORBIT =      0    0 simple, 1 ext, 2 COOP (PROOUT)


 Dipole corrections
   LMONO  =      F    monopole corrections only (constant potential shift)
   LDIPOL =      F    correct potential (dipole corrections)
   IDIPOL =      3    1-x, 2-y, 3-z, 4-all directions 
   EPSILON=  1.0000000 bulk dielectric constant

 Exchange correlation treatment:
   GGA     =    PE    GGA type
   LEXCH   =     8    internal setting for exchange type
   VOSKOWN=      0    Vosko Wilk Nusair interpolation
   LHFCALC =     F    Hartree Fock is set to
   LHFONE  =     F    Hartree Fock one center treatment
   AEXX    =    0.0000 exact exchange contribution

 Linear response parameters
   LEPSILON=     F    determine dielectric tensor
   LRPA    =     F    only Hartree local field effects (RPA)
   LNABLA  =     F    use nabla operator in PAW spheres
   LVEL    =     F    velocity operator in full k-point grid
   LINTERFAST=   F  fast interpolation
   KINTER  =     0    interpolate to denser k-point grid
   CSHIFT  =0.1000    complex shift for real part using Kramers Kronig
   OMEGAMAX=  -1.0    maximum frequency
   DEG_THRESHOLD= 0.2000000E-02 threshold for treating states as degnerate
   RTIME   =    0.100 relaxation time in fs

 Orbital magnetization related:
   ORBITALMAG=     F  switch on orbital magnetization
   LCHIMAG   =     F  perturbation theory with respect to B field
   DQ        =  0.001000  dq finite difference perturbation B field



--------------------------------------------------------------------------------------------------------


 conjugate gradient relaxation of ions
   using selective dynamics as specified on POSCAR
 charge density and potential will be updated during run
 spin polarized calculation
 Variant of blocked Davidson
 Davidson routine will perform the subspace rotation
 perform sub-space diagonalisation
    after iterative eigenvector-optimisation
 modified Broyden-mixing scheme, WC =      100.0
 initial mixing is a Kerker type mixing with AMIX =  0.4000 and BMIX =      1.0000
 Hartree-type preconditioning will be used
 using additional bands           62
 real space projection scheme for non local part
 use partial core corrections
 calculate Harris-corrections to forces 
   (improved forces if not selfconsistent)
 use gradient corrections 
 use of overlap-Matrix (Vanderbilt PP)
 Methfessel and Paxton  Order N= 2 SIGMA  =   0.20


--------------------------------------------------------------------------------------------------------


  energy-cutoff  :      400.00
  volume of cell :     1174.53
      direct lattice vectors                 reciprocal lattice vectors
     7.410000000  0.000000000  0.000000000     0.134952767  0.077914995  0.000000000
    -3.705000000  6.417250000  0.000000000     0.000000000  0.155829989  0.000000000
     0.000000000  0.000000000 24.700000000     0.000000000  0.000000000  0.040485830

  length of vectors
     7.410000000  7.410001522 24.700000000     0.155830021  0.155829989  0.040485830


 
 k-points in units of 2pi/SCALE and weight:  Automatic mesh                         
   0.00000000  0.00000000  0.00000000       0.111
   0.11111111  0.06415001  0.00000000       0.222
   0.00000000  0.12830002  0.00000000       0.222
   0.11111111  0.19245004  0.00000000       0.222
  -0.11111111  0.06415001  0.00000000       0.222
 
 k-points in reciprocal lattice and weights:  Automatic mesh                         
   0.00000000  0.00000000  0.00000000       0.111
   0.33333333  0.00000000  0.00000000       0.222
   0.00000000  0.33333333  0.00000000       0.222
   0.33333333  0.33333333  0.00000000       0.222
  -0.33333333  0.33333333  0.00000000       0.222
 
 position of ions in fractional coordinates (direct lattice) 
   0.22222237  0.11111141  0.00000000
   0.55555571  0.11111141  0.00000000
   0.88888904  0.11111141  0.00000000
   0.22222206  0.44444412  0.00000000
   0.55555539  0.44444412  0.00000000
   0.88888872  0.44444412  0.00000000
   0.55555431  0.77777528  0.00000000
   0.88888764  0.77777528  0.00000000
   0.22222097  0.77777528  0.00000000
   0.00000000  0.00000000  0.08164980
   0.33333333  0.00000000  0.08164980
   0.66666667  0.00000000  0.08164980
   0.33333302  0.33333270  0.08164980
   0.66666635  0.33333270  0.08164980
   0.99999968  0.33333270  0.08164980
   0.33333309  0.66666617  0.08164980
   0.66666642  0.66666617  0.08164980
   0.99999975  0.66666617  0.08164980
   0.22221903  0.11111098  0.16433386
   0.55557556  0.11115078  0.16434899
   0.88888672  0.11111081  0.16433525
   0.22221794  0.44444808  0.16433547
   0.55556352  0.44443051  0.16434304
   0.88884900  0.44442186  0.16434831
   0.55554616  0.77777806  0.16433454
   0.88888531  0.77777895  0.16433417
   0.22221829  0.77777708  0.16433284
   0.00001611  0.99997672  0.24289584
   0.33336368  0.99997695  0.24289030
   0.66669163  0.99998967  0.24289334
   0.33333399  0.33329537  0.24289211
   0.66666253  0.33335228  0.24283586
   0.99999618  0.33328918  0.24289383
   0.33334352  0.66663605  0.24289140
   0.66668375  0.66665296  0.24289266
   0.00001106  0.66663070  0.24289233
 
 position of ions in cartesian coordinates  (Angst):
   1.23500000  0.71302972  0.00000000
   3.70500000  0.71302972  0.00000000
   6.17500000  0.71302972  0.00000000
  -0.00000000  2.85210900  0.00000000
   2.47000000  2.85210900  0.00000000
   4.94000000  2.85210900  0.00000000
   1.23500000  4.99117840  0.00000000
   3.70500000  4.99117840  0.00000000
  -1.23500000  4.99117840  0.00000000
   0.00000000  0.00000000  2.01675006
   2.47000000  0.00000000  2.01675006
   4.94000000  0.00000000  2.01675006
   1.23500000  2.13907928  2.01675006
   3.70500000  2.13907928  2.01675006
   6.17500000  2.13907928  2.01675006
   0.00000000  4.27816350  2.01675006
   2.47000000  4.27816350  2.01675006
   4.94000000  4.27816350  2.01675006
   1.23497683  0.71302694  4.05904646
   3.70500126  0.71328233  4.05942013
   6.17498505  0.71302582  4.05908070
  -0.00004517  2.85213443  4.05908620
   2.47011064  2.85202166  4.05927297
   4.93978810  2.85196618  4.05940314
   1.23492936  4.99119626  4.05906322
   3.70496915  4.99120198  4.05905397
  -1.23502654  4.99118997  4.05902118
  -3.70479436  6.41710061  5.99952723
  -1.23468969  6.41710205  5.99939031
   1.23522327  6.41718368  5.99946542
   1.23514554  2.13883971  5.99943505
   3.70489919  2.13920491  5.99804580
   6.17513531  2.13879997  5.99947752
   0.00018893  4.27797018  5.99941757
   2.47017741  4.27807868  5.99944872
  -2.46978479  4.27793588  5.99944045
 


--------------------------------------------------------------------------------------------------------


 k-point  1 :   0.0000 0.0000 0.0000  plane waves:   21237
 k-point  2 :   0.3333 0.0000 0.0000  plane waves:   21309
 k-point  3 :   0.0000 0.3333 0.0000  plane waves:   21309
 k-point  4 :   0.3333 0.3333 0.0000  plane waves:   21354
 k-point  5 :  -0.3333 0.3333 0.0000  plane waves:   21309

 maximum and minimum number of plane-waves per node :     21354    21237

 maximum number of plane-waves:     21354
 maximum index in each direction: 
   IXMAX=   12   IYMAX=   12   IZMAX=   40
   IXMIN=  -12   IYMIN=  -12   IZMIN=  -40

 WARNING: aliasing errors must be expected set NGX to  50 to avoid them
 WARNING: aliasing errors must be expected set NGY to  50 to avoid them
 WARNING: aliasing errors must be expected set NGZ to 162 to avoid them
 aliasing errors are usually negligible using standard VASP settings
 and one can safely disregard these warnings

 serial   3D FFT for wavefunctions
 parallel 3D FFT for charge:
    minimum data exchange during FFTs selected (reduces bandwidth)


 total amount of memory used by VASP on root node   169514. kBytes
========================================================================

   base      :      30000. kBytes
   nonlr-proj:       8662. kBytes
   fftplans  :       6203. kBytes
   grid      :      24935. kBytes
   one-center:       1119. kBytes
   wavefun   :      98595. kBytes
 
     INWAV:  cpu time    0.00: real time    0.00
 Broyden mixing: mesh for mixing (old mesh)
   NGX = 25   NGY = 25   NGZ = 81
  (NGX  = 72   NGY  = 72   NGZ  =252)
  gives a total of  50625 points

 initial charge density was supplied:
 charge density of overlapping atoms calculated
 number of electron     324.0000000 magnetization      58.6800000
 keeping initial charge density in first step


--------------------------------------------------------------------------------------------------------


 Maximum index for non-local projection operator         1388
 Maximum index for augmentation-charges          722 (set IRDMAX)


--------------------------------------------------------------------------------------------------------


 First call to EWALD:  gamma=   0.168
 Maximum number of real-space cells 4x 4x 1
 Maximum number of reciprocal cells 2x 2x 6

 FEWALD executed in parallel
    FEWALD:  cpu time    0.00: real time    0.00


----------------------------------------- Iteration    1(   1)  ---------------------------------------


    POTLOK:  cpu time    0.38: real time    0.37
    SETDIJ:  cpu time    0.05: real time    0.05
     EDDAV:  cpu time   26.12: real time   26.15
       DOS:  cpu time    0.00: real time    0.00
    --------------------------------------------
      LOOP:  cpu time   26.55: real time   26.58

 eigenvalue-minimisations  :  4480
 total energy-change (2. order) : 0.2339281E+04  (-0.1194175E+05)
 number of electron     324.0000000 magnetization      58.6800000
 augmentation part      324.0000000 magnetization      58.6800000

 Free energy of the ion-electron system (eV)
  ---------------------------------------------------
  alpha Z        PSCENC =       467.38326539
  Ewald energy   TEWEN  =    165631.08952731
  -Hartree energ DENC   =   -193688.08687642
  -exchange      EXHF   =         0.00000000
  -V(xc)+E(xc)   XCENC  =       605.07392788
  PAW double counting   =     25945.65349643   -27853.86916039
  entropy T*S    EENTRO =         0.00427726
  eigenvalues    EBANDS =      1951.15451121
  atomic energy  EATOM  =     29280.87842762
  Solvation contrib.  Ediel  =         0.00000000
  ---------------------------------------------------
  free energy    TOTEN  =      2339.28139629 eV

  energy without entropy =     2339.27711903  energy(sigma->0) =     2339.28032697


--------------------------------------------------------------------------------------------------------




----------------------------------------- Iteration    1(   2)  ---------------------------------------


     EDDAV:  cpu time   25.49: real time   25.50
       DOS:  cpu time    0.00: real time    0.00
    --------------------------------------------
      LOOP:  cpu time   25.50: real time   25.50

 eigenvalue-minimisations  :  4480
 total energy-change (2. order) :-0.2419580E+04  (-0.2268827E+04)
 number of electron     324.0000000 magnetization      58.6800000
 augmentation part      324.0000000 magnetization      58.6800000

 Free energy of the ion-electron system (eV)
  ---------------------------------------------------
  alpha Z        PSCENC =       467.38326539
  Ewald energy   TEWEN  =    165631.08952731
  -Hartree energ DENC   =   -193688.08687642
  -exchange      EXHF   =         0.00000000
  -V(xc)+E(xc)   XCENC  =       605.07392788
  PAW double counting   =     25945.65349643   -27853.86916039
  entropy T*S    EENTRO =        -0.01205023
  eigenvalues    EBANDS =      -468.40887494
  atomic energy  EATOM  =     29280.87842762
  Solvation contrib.  Ediel  =         0.00000000
  ---------------------------------------------------
  free energy    TOTEN  =       -80.29831735 eV

  energy without entropy =      -80.28626711  energy(sigma->0) =      -80.29530479


--------------------------------------------------------------------------------------------------------




----------------------------------------- Iteration    1(   3)  ---------------------------------------


     EDDAV:  cpu time   26.61: real time   26.61
       DOS:  cpu time    0.00: real time    0.00
    --------------------------------------------
      LOOP:  cpu time   26.62: real time   26.62

 eigenvalue-minimisations  :  4752
 total energy-change (2. order) :-0.1898868E+03  (-0.1681294E+03)
 number of electron     324.0000000 magnetization      58.6800000
 augmentation part      324.0000000 magnetization      58.6800000

 Free energy of the ion-electron system (eV)
  ---------------------------------------------------
  alpha Z        PSCENC =       467.38326539
  Ewald energy   TEWEN  =    165631.08952731
  -Hartree energ DENC   =   -193688.08687642
  -exchange      EXHF   =         0.00000000
  -V(xc)+E(xc)   XCENC  =       605.07392788
  PAW double counting   =     25945.65349643   -27853.86916039
  entropy T*S    EENTRO =         0.14823328
  eigenvalues    EBANDS =      -658.45599595
  atomic energy  EATOM  =     29280.87842762
  Solvation contrib.  Ediel  =         0.00000000
  ---------------------------------------------------
  free energy    TOTEN  =      -270.18515485 eV

  energy without entropy =     -270.33338813  energy(sigma->0) =     -270.22221317


--------------------------------------------------------------------------------------------------------




----------------------------------------- Iteration    1(   4)  ---------------------------------------


     EDDAV:  cpu time   26.55: real time   26.55
       DOS:  cpu time    0.00: real time    0.00
    --------------------------------------------
      LOOP:  cpu time   26.55: real time   26.55

 eigenvalue-minimisations  :  4760
 total energy-change (2. order) :-0.6214572E+01  (-0.6084126E+01)
 number of electron     324.0000000 magnetization      58.6800000
 augmentation part      324.0000000 magnetization      58.6800000

 Free energy of the ion-electron system (eV)
  ---------------------------------------------------
  alpha Z        PSCENC =       467.38326539
  Ewald energy   TEWEN  =    165631.08952731
  -Hartree energ DENC   =   -193688.08687642
  -exchange      EXHF   =         0.00000000
  -V(xc)+E(xc)   XCENC  =       605.07392788
  PAW double counting   =     25945.65349643   -27853.86916039
  entropy T*S    EENTRO =         0.16267511
  eigenvalues    EBANDS =      -664.68501024
  atomic energy  EATOM  =     29280.87842762
  Solvation contrib.  Ediel  =         0.00000000
  ---------------------------------------------------
  free energy    TOTEN  =      -276.39972730 eV

  energy without entropy =     -276.56240242  energy(sigma->0) =     -276.44039608


--------------------------------------------------------------------------------------------------------




----------------------------------------- Iteration    1(   5)  ---------------------------------------


     EDDAV:  cpu time   28.58: real time   28.59
       DOS:  cpu time    0.00: real time    0.00
    CHARGE:  cpu time    1.16: real time    1.16
    MIXING:  cpu time    0.01: real time    0.01
    --------------------------------------------
      LOOP:  cpu time   29.76: real time   29.76

 eigenvalue-minimisations  :  5192
 total energy-change (2. order) :-0.1335195E+00  (-0.1334672E+00)
 number of electron     323.9998675 magnetization      58.3591925
 augmentation part      165.8028017 magnetization      46.2519800

 Broyden mixing:
  rms(total) = 0.62350E+01    rms(broyden)= 0.62350E+01
  rms(prec ) = 0.64816E+01
  weight for this iteration     100.00

 Free energy of the ion-electron system (eV)
  ---------------------------------------------------
  alpha Z        PSCENC =       467.38326539
  Ewald energy   TEWEN  =    165631.08952731
  -Hartree energ DENC   =   -193688.08687642
  -exchange      EXHF   =         0.00000000
  -V(xc)+E(xc)   XCENC  =       605.07392788
  PAW double counting   =     25945.65349643   -27853.86916039
  entropy T*S    EENTRO =         0.16283424
  eigenvalues    EBANDS =      -664.81868891
  atomic energy  EATOM  =     29280.87842762
  Solvation contrib.  Ediel  =         0.00000000
  ---------------------------------------------------
  free energy    TOTEN  =      -276.53324685 eV

  energy without entropy =     -276.69608108  energy(sigma->0) =     -276.57395541


--------------------------------------------------------------------------------------------------------




----------------------------------------- Iteration    1(   6)  ---------------------------------------


    POTLOK:  cpu time    0.34: real time    0.34
    SETDIJ:  cpu time    0.04: real time    0.04
     EDDAV:  cpu time   28.39: real time   28.40
       DOS:  cpu time    0.00: real time    0.00
    CHARGE:  cpu time    1.10: real time    1.10
    MIXING:  cpu time    0.01: real time    0.01
    --------------------------------------------
      LOOP:  cpu time   29.90: real time   29.90

 eigenvalue-minimisations  :  5384
 total energy-change (2. order) :-0.6905737E+02  (-0.3520464E+02)
 number of electron     323.9997908 magnetization      57.8436974
 augmentation part      188.3994474 magnetization      51.0965961

 Broyden mixing:
  rms(total) = 0.12694E+02    rms(broyden)= 0.12694E+02
  rms(prec ) = 0.14148E+02
  weight for this iteration     100.00

 eigenvalues of (default mixing * dielectric matrix)
  average eigenvalue GAMMA=   0.2326
  0.2326

 Free energy of the ion-electron system (eV)
  ---------------------------------------------------
  alpha Z        PSCENC =       467.38326539
  Ewald energy   TEWEN  =    165631.08952731
  -Hartree energ DENC   =   -193290.69022247
  -exchange      EXHF   =         0.00000000
  -V(xc)+E(xc)   XCENC  =       577.42004104
  PAW double counting   =     28323.28985175   -30047.21152072
  entropy T*S    EENTRO =         0.02465228
  eigenvalues    EBANDS =     -1287.77463544
  atomic energy  EATOM  =     29280.87842762
  Solvation contrib.  Ediel  =         0.00000000
  ---------------------------------------------------
  free energy    TOTEN  =      -345.59061325 eV

  energy without entropy =     -345.61526553  energy(sigma->0) =     -345.59677632


--------------------------------------------------------------------------------------------------------




----------------------------------------- Iteration    1(   7)  ---------------------------------------


    POTLOK:  cpu time    0.35: real time    0.35
    SETDIJ:  cpu time    0.04: real time    0.04
     EDDAV:  cpu time   26.58: real time   26.58
       DOS:  cpu time    0.00: real time    0.00
    CHARGE:  cpu time    1.08: real time    1.08
    MIXING:  cpu time    0.01: real time    0.01
    --------------------------------------------
      LOOP:  cpu time   28.06: real time   28.06

 eigenvalue-minimisations  :  5016
 total energy-change (2. order) : 0.5187113E+02  (-0.2452057E+02)
 number of electron     323.9998683 magnetization      56.9637199
 augmentation part      194.3110997 magnetization      47.1084727

 Broyden mixing:
  rms(total) = 0.94300E+01    rms(broyden)= 0.94296E+01
  rms(prec ) = 0.10839E+02
  weight for this iteration     100.00

 eigenvalues of (default mixing * dielectric matrix)
  average eigenvalue GAMMA=   0.3412
  0.5568  0.1255

 Free energy of the ion-electron system (eV)
  ---------------------------------------------------
  alpha Z        PSCENC =       467.38326539
  Ewald energy   TEWEN  =    165631.08952731
  -Hartree energ DENC   =   -193038.73686571
  -exchange      EXHF   =         0.00000000
  -V(xc)+E(xc)   XCENC  =       576.28059359
  PAW double counting   =     28800.88499481   -30552.13437687
  entropy T*S    EENTRO =         0.05982268
  eigenvalues    EBANDS =     -1459.42487524
  atomic energy  EATOM  =     29280.87842762
  Solvation contrib.  Ediel  =         0.00000000
  ---------------------------------------------------
  free energy    TOTEN  =      -293.71948642 eV

  energy without entropy =     -293.77930910  energy(sigma->0) =     -293.73444209


--------------------------------------------------------------------------------------------------------




----------------------------------------- Iteration    1(   8)  ---------------------------------------


    POTLOK:  cpu time    0.35: real time    0.35
    SETDIJ:  cpu time    0.04: real time    0.05
     EDDAV:  cpu time   33.08: real time   33.08
       DOS:  cpu time    0.00: real time    0.00
    CHARGE:  cpu time    0.88: real time    0.88
    MIXING:  cpu time    0.01: real time    0.01
    --------------------------------------------
      LOOP:  cpu time   34.36: real time   34.37

 eigenvalue-minimisations  :  6616
 total energy-change (2. order) : 0.3077497E+02  (-0.7544768E+01)
 number of electron     323.9998302 magnetization      56.6777981
 augmentation part      187.0641331 magnetization      47.6334679

 Broyden mixing:
  rms(total) = 0.69041E+01    rms(broyden)= 0.69039E+01
  rms(prec ) = 0.93038E+01
  weight for this iteration     100.00

 eigenvalues of (default mixing * dielectric matrix)
  average eigenvalue GAMMA=   0.3240
  0.5470  0.3060  0.1191

 Free energy of the ion-electron system (eV)
  ---------------------------------------------------
  alpha Z        PSCENC =       467.38326539
  Ewald energy   TEWEN  =    165631.08952731
  -Hartree energ DENC   =   -193435.34793223
  -exchange      EXHF   =         0.00000000
  -V(xc)+E(xc)   XCENC  =       579.06007248
  PAW double counting   =     30069.28018186   -31909.89443327
  entropy T*S    EENTRO =         0.03042994
  eigenvalues    EBANDS =      -945.42405254
  atomic energy  EATOM  =     29280.87842762
  Solvation contrib.  Ediel  =         0.00000000
  ---------------------------------------------------
  free energy    TOTEN  =      -262.94451344 eV

  energy without entropy =     -262.97494338  energy(sigma->0) =     -262.95212093


--------------------------------------------------------------------------------------------------------




----------------------------------------- Iteration    1(   9)  ---------------------------------------


    POTLOK:  cpu time    0.34: real time    0.33
    SETDIJ:  cpu time    0.05: real time    0.05
     EDDAV:  cpu time   31.39: real time   31.39
       DOS:  cpu time    0.00: real time    0.00
    CHARGE:  cpu time    1.15: real time    1.16
    MIXING:  cpu time    0.01: real time    0.01
    --------------------------------------------
      LOOP:  cpu time   32.95: real time   32.95

 eigenvalue-minimisations  :  6184
 total energy-change (2. order) :-0.2626991E+02  (-0.7288566E+01)
 number of electron     323.9998469 magnetization      55.8357272
 augmentation part      184.4688776 magnetization      46.5050248

 Broyden mixing:
  rms(total) = 0.83389E+01    rms(broyden)= 0.83386E+01
  rms(prec ) = 0.11737E+02
  weight for this iteration     100.00

 eigenvalues of (default mixing * dielectric matrix)
  average eigenvalue GAMMA=   0.3598
  0.6224  0.6224  0.1211  0.0733

 Free energy of the ion-electron system (eV)
  ---------------------------------------------------
  alpha Z        PSCENC =       467.38326539
  Ewald energy   TEWEN  =    165631.08952731
  -Hartree energ DENC   =   -193487.47522359
  -exchange      EXHF   =         0.00000000
  -V(xc)+E(xc)   XCENC  =       579.52107518
  PAW double counting   =     30302.05522872   -32155.65012739
  entropy T*S    EENTRO =         0.05320404
  eigenvalues    EBANDS =      -907.06979816
  atomic energy  EATOM  =     29280.87842762
  Solvation contrib.  Ediel  =         0.00000000
  ---------------------------------------------------
  free energy    TOTEN  =      -289.21442088 eV

  energy without entropy =     -289.26762492  energy(sigma->0) =     -289.22772189


--------------------------------------------------------------------------------------------------------




----------------------------------------- Iteration    1(  10)  ---------------------------------------


    POTLOK:  cpu time    0.35: real time    0.35
    SETDIJ:  cpu time    0.05: real time    0.05
     EDDAV:  cpu time   27.47: real time   27.47
       DOS:  cpu time    0.00: real time    0.00
    CHARGE:  cpu time    1.14: real time    1.14
    MIXING:  cpu time    0.01: real time    0.01
    --------------------------------------------
      LOOP:  cpu time   29.02: real time   29.02

 eigenvalue-minimisations  :  5208
 total energy-change (2. order) :-0.1130020E+02  (-0.6512126E+01)
 number of electron     323.9998155 magnetization      54.8641533
 augmentation part      186.8321907 magnetization      47.9916191

 Broyden mixing:
  rms(total) = 0.11688E+02    rms(broyden)= 0.11688E+02
  rms(prec ) = 0.13463E+02
  weight for this iteration     100.00

 eigenvalues of (default mixing * dielectric matrix)
  average eigenvalue GAMMA=   0.3673
  0.7635  0.7635  0.1219  0.1219  0.0657

 Free energy of the ion-electron system (eV)
  ---------------------------------------------------
  alpha Z        PSCENC =       467.38326539
  Ewald energy   TEWEN  =    165631.08952731
  -Hartree energ DENC   =   -193489.54076381
  -exchange      EXHF   =         0.00000000
  -V(xc)+E(xc)   XCENC  =       580.57764625
  PAW double counting   =     30775.60418344   -32647.71932222
  entropy T*S    EENTRO =        -0.05710232
  eigenvalues    EBANDS =      -898.73047807
  atomic energy  EATOM  =     29280.87842762
  Solvation contrib.  Ediel  =         0.00000000
  ---------------------------------------------------
  free energy    TOTEN  =      -300.51461641 eV

  energy without entropy =     -300.45751409  energy(sigma->0) =     -300.50034083


--------------------------------------------------------------------------------------------------------




----------------------------------------- Iteration    1(  11)  ---------------------------------------


    POTLOK:  cpu time    0.35: real time    0.35
    SETDIJ:  cpu time    0.05: real time    0.05
     EDDAV:  cpu time   27.00: real time   27.00
       DOS:  cpu time    0.00: real time    0.00
    CHARGE:  cpu time    1.12: real time    1.12
    MIXING:  cpu time    0.01: real time    0.01
    --------------------------------------------
      LOOP:  cpu time   28.53: real time   28.53

 eigenvalue-minimisations  :  5176
 total energy-change (2. order) : 0.7175611E+02  (-0.5346219E+01)
 number of electron     323.9998361 magnetization      54.8138311
 augmentation part      185.3993036 magnetization      42.5056628

 Broyden mixing:
  rms(total) = 0.35910E+01    rms(broyden)= 0.35905E+01
  rms(prec ) = 0.41231E+01
  weight for this iteration     100.00

 eigenvalues of (default mixing * dielectric matrix)
  average eigenvalue GAMMA=   0.3839
  1.0804  0.4566  0.4566  0.1235  0.1235  0.0626

 Free energy of the ion-electron system (eV)
  ---------------------------------------------------
  alpha Z        PSCENC =       467.38326539
  Ewald energy   TEWEN  =    165631.08952731
  -Hartree energ DENC   =   -193485.34801868
  -exchange      EXHF   =         0.00000000
  -V(xc)+E(xc)   XCENC  =       582.91736863
  PAW double counting   =     31186.57445829   -33077.76797659
  entropy T*S    EENTRO =        -0.04506831
  eigenvalues    EBANDS =      -814.44048658
  atomic energy  EATOM  =     29280.87842762
  Solvation contrib.  Ediel  =         0.00000000
  ---------------------------------------------------
  free energy    TOTEN  =      -228.75850292 eV

  energy without entropy =     -228.71343461  energy(sigma->0) =     -228.74723584


--------------------------------------------------------------------------------------------------------




----------------------------------------- Iteration    1(  12)  ---------------------------------------


    POTLOK:  cpu time    0.30: real time    0.30
    SETDIJ:  cpu time    0.05: real time    0.05
     EDDAV:  cpu time   27.94: real time   27.94
       DOS:  cpu time    0.00: real time    0.00
    CHARGE:  cpu time    1.16: real time    1.16
    MIXING:  cpu time    0.01: real time    0.01
    --------------------------------------------
      LOOP:  cpu time   29.46: real time   29.46

 eigenvalue-minimisations  :  5336
 total energy-change (2. order) :-0.1873794E+01  (-0.1604625E+01)
 number of electron     323.9998463 magnetization      54.8840911
 augmentation part      184.0357992 magnetization      43.1893927

 Broyden mixing:
  rms(total) = 0.19313E+01    rms(broyden)= 0.19312E+01
  rms(prec ) = 0.21127E+01
  weight for this iteration     100.00

 eigenvalues of (default mixing * dielectric matrix)
  average eigenvalue GAMMA=   0.3564
  1.1437  0.3853  0.3853  0.2687  0.1244  0.1244  0.0631

 Free energy of the ion-electron system (eV)
  ---------------------------------------------------
  alpha Z        PSCENC =       467.38326539
  Ewald energy   TEWEN  =    165631.08952731
  -Hartree energ DENC   =   -193517.54453742
  -exchange      EXHF   =         0.00000000
  -V(xc)+E(xc)   XCENC  =       584.26536562
  PAW double counting   =     31431.03545685   -33332.63822562
  entropy T*S    EENTRO =         0.01234305
  eigenvalues    EBANDS =      -775.11391957
  atomic energy  EATOM  =     29280.87842762
  Solvation contrib.  Ediel  =         0.00000000
  ---------------------------------------------------
  free energy    TOTEN  =      -230.63229677 eV

  energy without entropy =     -230.64463983  energy(sigma->0) =     -230.63538254


--------------------------------------------------------------------------------------------------------




----------------------------------------- Iteration    1(  13)  ---------------------------------------


    POTLOK:  cpu time    0.34: real time    0.34
    SETDIJ:  cpu time    0.05: real time    0.05
     EDDAV:  cpu time   25.86: real time   25.86
       DOS:  cpu time    0.00: real time    0.00
    CHARGE:  cpu time    1.18: real time    1.18
    MIXING:  cpu time    0.01: real time    0.01
    --------------------------------------------
      LOOP:  cpu time   27.44: real time   27.45

 eigenvalue-minimisations  :  4888
 total energy-change (2. order) :-0.2820167E+01  (-0.5103589E+00)
 number of electron     323.9998420 magnetization      54.9335600
 augmentation part      184.0448557 magnetization      44.3165241

 Broyden mixing:
  rms(total) = 0.18225E+01    rms(broyden)= 0.18224E+01
  rms(prec ) = 0.18935E+01
  weight for this iteration     100.00

 eigenvalues of (default mixing * dielectric matrix)
  average eigenvalue GAMMA=   0.3826
  1.2116  0.4163  0.4163  0.3533  0.3533  0.1237  0.1237  0.0630

 Free energy of the ion-electron system (eV)
  ---------------------------------------------------
  alpha Z        PSCENC =       467.38326539
  Ewald energy   TEWEN  =    165631.08952731
  -Hartree energ DENC   =   -193529.31518155
  -exchange      EXHF   =         0.00000000
  -V(xc)+E(xc)   XCENC  =       584.23469670
  PAW double counting   =     31663.46806767   -33566.55621295
  entropy T*S    EENTRO =         0.01462904
  eigenvalues    EBANDS =      -764.64968312
  atomic energy  EATOM  =     29280.87842762
  Solvation contrib.  Ediel  =         0.00000000
  ---------------------------------------------------
  free energy    TOTEN  =      -233.45246389 eV

  energy without entropy =     -233.46709293  energy(sigma->0) =     -233.45612115


--------------------------------------------------------------------------------------------------------




----------------------------------------- Iteration    1(  14)  ---------------------------------------


    POTLOK:  cpu time    0.34: real time    0.34
    SETDIJ:  cpu time    0.05: real time    0.05
     EDDAV:  cpu time   25.59: real time   25.59
       DOS:  cpu time    0.00: real time    0.00
    CHARGE:  cpu time    1.24: real time    1.24
    MIXING:  cpu time    0.01: real time    0.01
    --------------------------------------------
      LOOP:  cpu time   27.24: real time   27.24

 eigenvalue-minimisations  :  4696
 total energy-change (2. order) :-0.1789956E+01  (-0.2888646E+00)
 number of electron     323.9998419 magnetization      55.0368432
 augmentation part      184.1932895 magnetization      45.3257790

 Broyden mixing:
  rms(total) = 0.16367E+01    rms(broyden)= 0.16366E+01
  rms(prec ) = 0.17202E+01
  weight for this iteration     100.00

 eigenvalues of (default mixing * dielectric matrix)
  average eigenvalue GAMMA=   0.4787
  1.4158  0.7028  0.7028  0.6109  0.4431  0.0630  0.1240  0.1240  0.1222

 Free energy of the ion-electron system (eV)
  ---------------------------------------------------
  alpha Z        PSCENC =       467.38326539
  Ewald energy   TEWEN  =    165631.08952731
  -Hartree energ DENC   =   -193530.05872802
  -exchange      EXHF   =         0.00000000
  -V(xc)+E(xc)   XCENC  =       583.98240654
  PAW double counting   =     31830.88972176   -33734.83078137
  entropy T*S    EENTRO =        -0.02026187
  eigenvalues    EBANDS =      -764.55599685
  atomic energy  EATOM  =     29280.87842762
  Solvation contrib.  Ediel  =         0.00000000
  ---------------------------------------------------
  free energy    TOTEN  =      -235.24241949 eV

  energy without entropy =     -235.22215762  energy(sigma->0) =     -235.23735403


--------------------------------------------------------------------------------------------------------




----------------------------------------- Iteration    1(  15)  ---------------------------------------


    POTLOK:  cpu time    0.34: real time    0.34
    SETDIJ:  cpu time    0.05: real time    0.05
     EDDAV:  cpu time   26.22: real time   26.22
       DOS:  cpu time    0.00: real time    0.00
    CHARGE:  cpu time    1.20: real time    1.20
    MIXING:  cpu time    0.02: real time    0.01
    --------------------------------------------
      LOOP:  cpu time   27.83: real time   27.83

 eigenvalue-minimisations  :  4752
 total energy-change (2. order) :-0.1864914E+01  (-0.3288607E+00)
 number of electron     323.9998465 magnetization      55.2003339
 augmentation part      184.7280834 magnetization      46.9369653

 Broyden mixing:
  rms(total) = 0.13369E+01    rms(broyden)= 0.13368E+01
  rms(prec ) = 0.14023E+01
  weight for this iteration     100.00

 eigenvalues of (default mixing * dielectric matrix)
  average eigenvalue GAMMA=   0.4982
  1.6154  0.7930  0.7930  0.6315  0.4569  0.2563  0.0630  0.1237  0.1237  0.1251

 Free energy of the ion-electron system (eV)
  ---------------------------------------------------
  alpha Z        PSCENC =       467.38326539
  Ewald energy   TEWEN  =    165631.08952731
  -Hartree energ DENC   =   -193518.53091810
  -exchange      EXHF   =         0.00000000
  -V(xc)+E(xc)   XCENC  =       583.82000376
  PAW double counting   =     32089.71729953   -33994.26039670
  entropy T*S    EENTRO =        -0.01261728
  eigenvalues    EBANDS =      -777.19192505
  atomic energy  EATOM  =     29280.87842762
  Solvation contrib.  Ediel  =         0.00000000
  ---------------------------------------------------
  free energy    TOTEN  =      -237.10733352 eV

  energy without entropy =     -237.09471624  energy(sigma->0) =     -237.10417920


--------------------------------------------------------------------------------------------------------




----------------------------------------- Iteration    1(  16)  ---------------------------------------


    POTLOK:  cpu time    0.36: real time    0.36
    SETDIJ:  cpu time    0.04: real time    0.04
     EDDAV:  cpu time   26.46: real time   26.46
       DOS:  cpu time    0.00: real time    0.00
    CHARGE:  cpu time    0.97: real time    0.97
    MIXING:  cpu time    0.02: real time    0.02
    --------------------------------------------
      LOOP:  cpu time   27.85: real time   27.85

 eigenvalue-minimisations  :  4688
 total energy-change (2. order) :-0.1826612E+01  (-0.2781601E+00)
 number of electron     323.9998450 magnetization      55.3320073
 augmentation part      185.0658881 magnetization      47.9784994

 Broyden mixing:
  rms(total) = 0.15543E+01    rms(broyden)= 0.15542E+01
  rms(prec ) = 0.16635E+01
  weight for this iteration     100.00

 eigenvalues of (default mixing * dielectric matrix)
  average eigenvalue GAMMA=   0.4777
  1.6844  0.8196  0.8196  0.6193  0.4646  0.2741  0.0630  0.1243  0.1243  0.1443
  0.1173

 Free energy of the ion-electron system (eV)
  ---------------------------------------------------
  alpha Z        PSCENC =       467.38326539
  Ewald energy   TEWEN  =    165631.08952731
  -Hartree energ DENC   =   -193526.41836916
  -exchange      EXHF   =         0.00000000
  -V(xc)+E(xc)   XCENC  =       583.70322942
  PAW double counting   =     32159.58809325   -34062.71587829
  entropy T*S    EENTRO =        -0.01313505
  eigenvalues    EBANDS =      -772.42910647
  atomic energy  EATOM  =     29280.87842762
  Solvation contrib.  Ediel  =         0.00000000
  ---------------------------------------------------
  free energy    TOTEN  =      -238.93394600 eV

  energy without entropy =     -238.92081095  energy(sigma->0) =     -238.93066223


--------------------------------------------------------------------------------------------------------




----------------------------------------- Iteration    1(  17)  ---------------------------------------


    POTLOK:  cpu time    0.37: real time    0.37
    SETDIJ:  cpu time    0.04: real time    0.05
     EDDAV:  cpu time   26.40: real time   26.41
       DOS:  cpu time    0.00: real time    0.00
    CHARGE:  cpu time    1.16: real time    1.16
    MIXING:  cpu time    0.02: real time    0.02
    --------------------------------------------
      LOOP:  cpu time   27.99: real time   27.99

 eigenvalue-minimisations  :  4656
 total energy-change (2. order) :-0.4198555E+00  (-0.1512293E+00)
 number of electron     323.9998433 magnetization      55.4970829
 augmentation part      185.2099616 magnetization      48.7184812

 Broyden mixing:
  rms(total) = 0.12463E+01    rms(broyden)= 0.12463E+01
  rms(prec ) = 0.13643E+01
  weight for this iteration     100.00

 eigenvalues of (default mixing * dielectric matrix)
  average eigenvalue GAMMA=   0.4736
  1.6386  0.8663  0.8663  0.6610  0.4292  0.3290  0.3290  0.0630  0.1237  0.1237
  0.1265  0.1265

 Free energy of the ion-electron system (eV)
  ---------------------------------------------------
  alpha Z        PSCENC =       467.38326539
  Ewald energy   TEWEN  =    165631.08952731
  -Hartree energ DENC   =   -193534.24793097
  -exchange      EXHF   =         0.00000000
  -V(xc)+E(xc)   XCENC  =       583.80846630
  PAW double counting   =     32167.58461760   -34069.83600149
  entropy T*S    EENTRO =        -0.02025290
  eigenvalues    EBANDS =      -765.99392039
  atomic energy  EATOM  =     29280.87842762
  Solvation contrib.  Ediel  =         0.00000000
  ---------------------------------------------------
  free energy    TOTEN  =      -239.35380153 eV

  energy without entropy =     -239.33354863  energy(sigma->0) =     -239.34873830


--------------------------------------------------------------------------------------------------------




----------------------------------------- Iteration    1(  18)  ---------------------------------------


    POTLOK:  cpu time    0.36: real time    0.36
    SETDIJ:  cpu time    0.04: real time    0.04
     EDDAV:  cpu time   27.46: real time   27.47
       DOS:  cpu time    0.00: real time    0.00
    CHARGE:  cpu time    1.16: real time    1.16
    MIXING:  cpu time    0.02: real time    0.02
    --------------------------------------------
      LOOP:  cpu time   29.05: real time   29.05

 eigenvalue-minimisations  :  4904
 total energy-change (2. order) :-0.3752996E+00  (-0.5088473E-01)
 number of electron     323.9998424 magnetization      55.6054758
 augmentation part      185.2205727 magnetization      49.2335044

 Broyden mixing:
  rms(total) = 0.11079E+01    rms(broyden)= 0.11079E+01
  rms(prec ) = 0.12421E+01
  weight for this iteration     100.00

 eigenvalues of (default mixing * dielectric matrix)
  average eigenvalue GAMMA=   0.4675
  1.6193  0.9024  0.9024  0.6800  0.4277  0.3876  0.3876  0.2063  0.0630  0.1239
  0.1239  0.1332  0.1202

 Free energy of the ion-electron system (eV)
  ---------------------------------------------------
  alpha Z        PSCENC =       467.38326539
  Ewald energy   TEWEN  =    165631.08952731
  -Hartree energ DENC   =   -193540.46846056
  -exchange      EXHF   =         0.00000000
  -V(xc)+E(xc)   XCENC  =       584.17363419
  PAW double counting   =     32135.45260221   -34037.67551036
  entropy T*S    EENTRO =        -0.02165737
  eigenvalues    EBANDS =      -760.54092951
  atomic energy  EATOM  =     29280.87842762
  Solvation contrib.  Ediel  =         0.00000000
  ---------------------------------------------------
  free energy    TOTEN  =      -239.72910108 eV

  energy without entropy =     -239.70744371  energy(sigma->0) =     -239.72368674


--------------------------------------------------------------------------------------------------------




----------------------------------------- Iteration    1(  19)  ---------------------------------------


    POTLOK:  cpu time    0.36: real time    0.36
    SETDIJ:  cpu time    0.04: real time    0.05
     EDDAV:  cpu time   25.88: real time   25.88
       DOS:  cpu time    0.00: real time    0.00
    CHARGE:  cpu time    1.14: real time    1.14
    MIXING:  cpu time    0.02: real time    0.01
    --------------------------------------------
      LOOP:  cpu time   27.44: real time   27.44

 eigenvalue-minimisations  :  4728
 total energy-change (2. order) :-0.1808616E+00  (-0.2806511E-01)
 number of electron     323.9998424 magnetization      55.8087534
 augmentation part      185.1910514 magnetization      49.6814326

 Broyden mixing:
  rms(total) = 0.95040E+00    rms(broyden)= 0.95039E+00
  rms(prec ) = 0.10898E+01
  weight for this iteration     100.00

 eigenvalues of (default mixing * dielectric matrix)
  average eigenvalue GAMMA=   0.5122
  1.8136  0.9384  0.9384  0.5831  0.5831  0.6199  0.6199  0.3854  0.0630  0.1239
  0.1239  0.1355  0.1212  0.1212

 Free energy of the ion-electron system (eV)
  ---------------------------------------------------
  alpha Z        PSCENC =       467.38326539
  Ewald energy   TEWEN  =    165631.08952731
  -Hartree energ DENC   =   -193543.81226936
  -exchange      EXHF   =         0.00000000
  -V(xc)+E(xc)   XCENC  =       584.42802942
  PAW double counting   =     32115.59317400   -34018.10092246
  entropy T*S    EENTRO =        -0.01847250
  eigenvalues    EBANDS =      -757.35072209
  atomic energy  EATOM  =     29280.87842762
  Solvation contrib.  Ediel  =         0.00000000
  ---------------------------------------------------
  free energy    TOTEN  =      -239.90996268 eV

  energy without entropy =     -239.89149018  energy(sigma->0) =     -239.90534456


--------------------------------------------------------------------------------------------------------




----------------------------------------- Iteration    1(  20)  ---------------------------------------


    POTLOK:  cpu time    0.34: real time    0.34
    SETDIJ:  cpu time    0.05: real time    0.05
     EDDAV:  cpu time   29.12: real time   29.12
       DOS:  cpu time    0.00: real time    0.00
    CHARGE:  cpu time    1.22: real time    1.22
    MIXING:  cpu time    0.02: real time    0.02
    --------------------------------------------
      LOOP:  cpu time   30.75: real time   30.75

 eigenvalue-minimisations  :  5528
 total energy-change (2. order) :-0.3090397E+00  (-0.3535571E-01)
 number of electron     323.9998440 magnetization      55.8778524
 augmentation part      185.0686553 magnetization      50.1728177

 Broyden mixing:
  rms(total) = 0.71810E+00    rms(broyden)= 0.71808E+00
  rms(prec ) = 0.84454E+00
  weight for this iteration     100.00

 eigenvalues of (default mixing * dielectric matrix)
  average eigenvalue GAMMA=   0.4958
  1.7502  0.9917  0.9917  0.6050  0.6050  0.6041  0.6041  0.3589  0.2379  0.0630
  0.1238  0.1238  0.1363  0.1234  0.1180

 Free energy of the ion-electron system (eV)
  ---------------------------------------------------
  alpha Z        PSCENC =       467.38326539
  Ewald energy   TEWEN  =    165631.08952731
  -Hartree energ DENC   =   -193547.23335958
  -exchange      EXHF   =         0.00000000
  -V(xc)+E(xc)   XCENC  =       584.97784743
  PAW double counting   =     32093.07024759   -33996.95778077
  entropy T*S    EENTRO =        -0.00278853
  eigenvalues    EBANDS =      -753.42438886
  atomic energy  EATOM  =     29280.87842762
  Solvation contrib.  Ediel  =         0.00000000
  ---------------------------------------------------
  free energy    TOTEN  =      -240.21900239 eV

  energy without entropy =     -240.21621386  energy(sigma->0) =     -240.21830526


--------------------------------------------------------------------------------------------------------




----------------------------------------- Iteration    1(  21)  ---------------------------------------


    POTLOK:  cpu time    0.33: real time    0.33
    SETDIJ:  cpu time    0.05: real time    0.05
     EDDAV:  cpu time   26.40: real time   26.40
       DOS:  cpu time    0.00: real time    0.00
    CHARGE:  cpu time    1.20: real time    1.20
    MIXING:  cpu time    0.02: real time    0.02
    --------------------------------------------
      LOOP:  cpu time   28.00: real time   28.00

 eigenvalue-minimisations  :  4896
 total energy-change (2. order) :-0.9580504E-01  (-0.2371888E-01)
 number of electron     323.9998441 magnetization      56.0121419
 augmentation part      185.0389393 magnetization      50.4105557

 Broyden mixing:
  rms(total) = 0.63764E+00    rms(broyden)= 0.63762E+00
  rms(prec ) = 0.75067E+00
  weight for this iteration     100.00

 eigenvalues of (default mixing * dielectric matrix)
  average eigenvalue GAMMA=   0.5219
  1.4476  1.4476  1.1442  0.6209  0.6209  0.6526  0.5954  0.5954  0.4093  0.0630
  0.1239  0.1239  0.1342  0.1342  0.1222  0.1153

 Free energy of the ion-electron system (eV)
  ---------------------------------------------------
  alpha Z        PSCENC =       467.38326539
  Ewald energy   TEWEN  =    165631.08952731
  -Hartree energ DENC   =   -193548.45430490
  -exchange      EXHF   =         0.00000000
  -V(xc)+E(xc)   XCENC  =       585.00481384
  PAW double counting   =     32076.41517789   -33980.54449371
  entropy T*S    EENTRO =        -0.00198156
  eigenvalues    EBANDS =      -752.08523931
  atomic energy  EATOM  =     29280.87842762
  Solvation contrib.  Ediel  =         0.00000000
  ---------------------------------------------------
  free energy    TOTEN  =      -240.31480743 eV

  energy without entropy =     -240.31282586  energy(sigma->0) =     -240.31431204


--------------------------------------------------------------------------------------------------------




----------------------------------------- Iteration    1(  22)  ---------------------------------------


    POTLOK:  cpu time    0.34: real time    0.34
    SETDIJ:  cpu time    0.05: real time    0.05
     EDDAV:  cpu time   27.37: real time   27.38
       DOS:  cpu time    0.00: real time    0.00
    CHARGE:  cpu time    1.20: real time    1.20
    MIXING:  cpu time    0.02: real time    0.02
    --------------------------------------------
      LOOP:  cpu time   28.99: real time   28.99

 eigenvalue-minimisations  :  5240
 total energy-change (2. order) :-0.7404671E-01  (-0.2107997E-01)
 number of electron     323.9998429 magnetization      56.0789024
 augmentation part      185.0150609 magnetization      50.4928463

 Broyden mixing:
  rms(total) = 0.26484E+00    rms(broyden)= 0.26481E+00
  rms(prec ) = 0.32800E+00
  weight for this iteration     100.00

 eigenvalues of (default mixing * dielectric matrix)
  average eigenvalue GAMMA=   0.5259
  1.5504  1.5504  1.0623  0.6634  0.6634  0.6035  0.6035  0.6416  0.3932  0.3932
  0.0630  0.1239  0.1239  0.1396  0.1287  0.1211  0.1155

 Free energy of the ion-electron system (eV)
  ---------------------------------------------------
  alpha Z        PSCENC =       467.38326539
  Ewald energy   TEWEN  =    165631.08952731
  -Hartree energ DENC   =   -193552.58643994
  -exchange      EXHF   =         0.00000000
  -V(xc)+E(xc)   XCENC  =       584.76643646
  PAW double counting   =     32028.28231621   -33932.25058054
  entropy T*S    EENTRO =        -0.00966139
  eigenvalues    EBANDS =      -747.94214527
  atomic energy  EATOM  =     29280.87842762
  Solvation contrib.  Ediel  =         0.00000000
  ---------------------------------------------------
  free energy    TOTEN  =      -240.38885414 eV

  energy without entropy =     -240.37919275  energy(sigma->0) =     -240.38643879


--------------------------------------------------------------------------------------------------------




----------------------------------------- Iteration    1(  23)  ---------------------------------------


    POTLOK:  cpu time    0.35: real time    0.35
    SETDIJ:  cpu time    0.05: real time    0.05
     EDDAV:  cpu time   31.28: real time   31.29
       DOS:  cpu time    0.00: real time    0.00
    CHARGE:  cpu time    1.24: real time    1.25
    MIXING:  cpu time    0.02: real time    0.02
    --------------------------------------------
      LOOP:  cpu time   32.96: real time   32.96

 eigenvalue-minimisations  :  6040
 total energy-change (2. order) :-0.7463907E-01  (-0.1030379E-01)
 number of electron     323.9998424 magnetization      56.1490032
 augmentation part      185.0298134 magnetization      50.6467980

 Broyden mixing:
  rms(total) = 0.24085E+00    rms(broyden)= 0.24083E+00
  rms(prec ) = 0.26824E+00
  weight for this iteration     100.00

 eigenvalues of (default mixing * dielectric matrix)
  average eigenvalue GAMMA=   0.5204
  1.6306  1.6306  0.9301  0.7346  0.7346  0.6118  0.6118  0.5784  0.4658  0.4658
  0.0630  0.1239  0.1239  0.1546  0.1396  0.1302  0.1222  0.1152

 Free energy of the ion-electron system (eV)
  ---------------------------------------------------
  alpha Z        PSCENC =       467.38326539
  Ewald energy   TEWEN  =    165631.08952731
  -Hartree energ DENC   =   -193555.40265706
  -exchange      EXHF   =         0.00000000
  -V(xc)+E(xc)   XCENC  =       584.83992466
  PAW double counting   =     32028.81896957   -33932.94566114
  entropy T*S    EENTRO =        -0.01176854
  eigenvalues    EBANDS =      -745.11352102
  atomic energy  EATOM  =     29280.87842762
  Solvation contrib.  Ediel  =         0.00000000
  ---------------------------------------------------
  free energy    TOTEN  =      -240.46349321 eV

  energy without entropy =     -240.45172467  energy(sigma->0) =     -240.46055107


--------------------------------------------------------------------------------------------------------




----------------------------------------- Iteration    1(  24)  ---------------------------------------


    POTLOK:  cpu time    0.33: real time    0.33
    SETDIJ:  cpu time    0.04: real time    0.04
     EDDAV:  cpu time   25.49: real time   25.49
       DOS:  cpu time    0.00: real time    0.00
    CHARGE:  cpu time    1.18: real time    1.18
    MIXING:  cpu time    0.02: real time    0.02
    --------------------------------------------
      LOOP:  cpu time   27.06: real time   27.06

 eigenvalue-minimisations  :  4840
 total energy-change (2. order) :-0.2634892E-01  (-0.5227124E-02)
 number of electron     323.9998422 magnetization      56.1876966
 augmentation part      185.0381959 magnetization      50.7741341

 Broyden mixing:
  rms(total) = 0.18743E+00    rms(broyden)= 0.18742E+00
  rms(prec ) = 0.20246E+00
  weight for this iteration     100.00

 eigenvalues of (default mixing * dielectric matrix)
  average eigenvalue GAMMA=   0.5346
  1.6957  1.6957  0.8436  0.8436  0.7979  0.6305  0.6305  0.6147  0.5261  0.5261
  0.4031  0.0630  0.1239  0.1239  0.1406  0.1336  0.1288  0.1208  0.1155

 Free energy of the ion-electron system (eV)
  ---------------------------------------------------
  alpha Z        PSCENC =       467.38326539
  Ewald energy   TEWEN  =    165631.08952731
  -Hartree energ DENC   =   -193558.80886119
  -exchange      EXHF   =         0.00000000
  -V(xc)+E(xc)   XCENC  =       584.98744532
  PAW double counting   =     32030.25758477   -33934.61367841
  entropy T*S    EENTRO =        -0.01293878
  eigenvalues    EBANDS =      -741.65061416
  atomic energy  EATOM  =     29280.87842762
  Solvation contrib.  Ediel  =         0.00000000
  ---------------------------------------------------
  free energy    TOTEN  =      -240.48984213 eV

  energy without entropy =     -240.47690335  energy(sigma->0) =     -240.48660743


--------------------------------------------------------------------------------------------------------




----------------------------------------- Iteration    1(  25)  ---------------------------------------


    POTLOK:  cpu time    0.34: real time    0.34
    SETDIJ:  cpu time    0.04: real time    0.05
     EDDAV:  cpu time   25.39: real time   25.39
       DOS:  cpu time    0.00: real time    0.00
    CHARGE:  cpu time    1.16: real time    1.16
    MIXING:  cpu time    0.02: real time    0.02
    --------------------------------------------
      LOOP:  cpu time   26.96: real time   26.97

 eigenvalue-minimisations  :  4760
 total energy-change (2. order) :-0.2891802E-01  (-0.2945133E-02)
 number of electron     323.9998422 magnetization      56.2084326
 augmentation part      185.0360472 magnetization      50.8389358

 Broyden mixing:
  rms(total) = 0.17164E+00    rms(broyden)= 0.17164E+00
  rms(prec ) = 0.18458E+00
  weight for this iteration     100.00

 eigenvalues of (default mixing * dielectric matrix)
  average eigenvalue GAMMA=   0.5271
  1.7346  1.7346  0.8853  0.8853  0.7868  0.6527  0.6527  0.6132  0.5174  0.5174
  0.4017  0.0630  0.1984  0.1239  0.1239  0.1477  0.1362  0.1296  0.1217  0.1153

 Free energy of the ion-electron system (eV)
  ---------------------------------------------------
  alpha Z        PSCENC =       467.38326539
  Ewald energy   TEWEN  =    165631.08952731
  -Hartree energ DENC   =   -193561.96807310
  -exchange      EXHF   =         0.00000000
  -V(xc)+E(xc)   XCENC  =       585.01774491
  PAW double counting   =     32032.19391679   -33936.77357728
  entropy T*S    EENTRO =        -0.01237890
  eigenvalues    EBANDS =      -738.32761289
  atomic energy  EATOM  =     29280.87842762
  Solvation contrib.  Ediel  =         0.00000000
  ---------------------------------------------------
  free energy    TOTEN  =      -240.51876015 eV

  energy without entropy =     -240.50638125  energy(sigma->0) =     -240.51566542


--------------------------------------------------------------------------------------------------------




----------------------------------------- Iteration    1(  26)  ---------------------------------------


    POTLOK:  cpu time    0.34: real time    0.34
    SETDIJ:  cpu time    0.04: real time    0.04
     EDDAV:  cpu time   26.15: real time   26.15
       DOS:  cpu time    0.00: real time    0.00
    CHARGE:  cpu time    1.13: real time    1.13
    MIXING:  cpu time    0.03: real time    0.03
    --------------------------------------------
      LOOP:  cpu time   27.69: real time   27.69

 eigenvalue-minimisations  :  4784
 total energy-change (2. order) :-0.8572228E-02  (-0.9902274E-03)
 number of electron     323.9998423 magnetization      56.2943493
 augmentation part      185.0332264 magnetization      50.9448556

 Broyden mixing:
  rms(total) = 0.15635E+00    rms(broyden)= 0.15635E+00
  rms(prec ) = 0.16797E+00
  weight for this iteration     100.00

 eigenvalues of (default mixing * dielectric matrix)
  average eigenvalue GAMMA=   0.5738
  1.9372  1.9372  1.1047  1.1047  0.8160  0.7038  0.7038  0.5628  0.5628  0.5619
  0.5619  0.4134  0.0630  0.1239  0.1239  0.1422  0.1154  0.1325  0.1325  0.1209
  0.1254

 Free energy of the ion-electron system (eV)
  ---------------------------------------------------
  alpha Z        PSCENC =       467.38326539
  Ewald energy   TEWEN  =    165631.08952731
  -Hartree energ DENC   =   -193563.46134460
  -exchange      EXHF   =         0.00000000
  -V(xc)+E(xc)   XCENC  =       585.04373046
  PAW double counting   =     32033.21247686   -33937.92547422
  entropy T*S    EENTRO =        -0.01171196
  eigenvalues    EBANDS =      -736.73622925
  atomic energy  EATOM  =     29280.87842762
  Solvation contrib.  Ediel  =         0.00000000
  ---------------------------------------------------
  free energy    TOTEN  =      -240.52733238 eV

  energy without entropy =     -240.51562042  energy(sigma->0) =     -240.52440439


--------------------------------------------------------------------------------------------------------




----------------------------------------- Iteration    1(  27)  ---------------------------------------


    POTLOK:  cpu time    0.38: real time    0.38
    SETDIJ:  cpu time    0.05: real time    0.05
     EDDAV:  cpu time   27.62: real time   27.63
       DOS:  cpu time    0.00: real time    0.00
    CHARGE:  cpu time    1.12: real time    1.12
    MIXING:  cpu time    0.03: real time    0.03
    --------------------------------------------
      LOOP:  cpu time   29.20: real time   29.20

 eigenvalue-minimisations  :  5184
 total energy-change (2. order) : 0.4961230E-02  (-0.2248954E-02)
 number of electron     323.9998424 magnetization      56.3479348
 augmentation part      185.0281565 magnetization      51.0658764

 Broyden mixing:
  rms(total) = 0.10721E+00    rms(broyden)= 0.10721E+00
  rms(prec ) = 0.11534E+00
  weight for this iteration     100.00

 eigenvalues of (default mixing * dielectric matrix)
  average eigenvalue GAMMA=   0.5954
  2.1095  2.1095  1.1983  1.1983  0.8466  0.7279  0.7279  0.5705  0.5705  0.5524
  0.5524  0.4545  0.4023  0.0630  0.1239  0.1239  0.1430  0.1358  0.1154  0.1293
  0.1216  0.1228

 Free energy of the ion-electron system (eV)
  ---------------------------------------------------
  alpha Z        PSCENC =       467.38326539
  Ewald energy   TEWEN  =    165631.08952731
  -Hartree energ DENC   =   -193569.04716298
  -exchange      EXHF   =         0.00000000
  -V(xc)+E(xc)   XCENC  =       585.18319419
  PAW double counting   =     32038.66937171   -33943.97616408
[...]
  0.000  -0.000   0.018   0.000  -0.000  -0.000   0.000   0.021  -0.000   0.000  -0.290   0.084  -0.000  -0.019  -0.000   0.000
 -0.000   0.000   0.053  -0.000   0.000   0.000  -0.000  -0.032   0.000  -0.000   0.084  -0.012   0.000   0.007  -0.000  -0.000
  0.000   0.006   0.000  -0.000   0.001  -0.000  -0.005  -0.000   0.000   0.004  -0.000   0.000  -0.038   0.000   0.000   0.004
  0.000   0.000  -0.049   0.000  -0.000  -0.000  -0.000  -0.006  -0.000   0.000  -0.019   0.007   0.000  -0.026   0.000   0.000
  0.001  -0.000  -0.000   0.006  -0.000   0.004   0.000   0.000  -0.005   0.000  -0.000  -0.000   0.000   0.000  -0.038  -0.000
 -0.000  -0.008  -0.000   0.000  -0.000   0.000   0.006   0.000  -0.000  -0.000   0.000  -0.000   0.004   0.000  -0.000  -0.000
  0.000  -0.000  -0.014  -0.000  -0.000  -0.000   0.000   0.009   0.000   0.000   0.003  -0.002   0.000   0.003   0.000  -0.000
 -0.000   0.000   0.000  -0.008  -0.000  -0.000  -0.000   0.000   0.006   0.000   0.000  -0.000  -0.000  -0.000   0.004  -0.000


------------------------ aborting loop because EDIFF is reached ----------------------------------------



 DIPCOR: dipole corrections for dipol
 direction  3 min pos   144,
 dipolmoment           0.000000      0.000000     -0.022741 electrons x Angstroem
 Tr[quadrupol]     -2825.938444

 energy correction for charged system         0.000000 eV
 dipol+quadrupol energy correction            0.000040 eV
 added-field ion interaction          0.000000 eV  (added to PSCEN)

 
  *************** adding dipol energy to TOTEN NOW **************** 
    CHARGE:  cpu time    1.18: real time    1.18
    FORLOC:  cpu time    0.03: real time    0.03
    FORNL :  cpu time    4.06: real time    4.06
    STRESS:  cpu time   12.32: real time   12.32
    FORCOR:  cpu time    0.43: real time    0.43
    FORHAR:  cpu time    0.06: real time    0.06
    MIXING:  cpu time    0.06: real time    0.06
    OFIELD:  cpu time    0.00: real time    0.00

  Hirshfeld-DOM and Hirshfeld charges and relative Volumes:   
            ion         q(e)           q(e)           rel_vol 
   -----------------------------------------------------------
      1     Co         -0.006          0.002          1.014
      2     Co         -0.016          0.002          1.038
      3     Co         -0.006          0.002          1.014
      4     Co          0.003          0.002          0.996
      5     Co         -0.000          0.002          1.004
      6     Co          0.007          0.002          0.988
      7     Co         -0.002          0.002          1.007
      8     Co         -0.003          0.002          1.009
      9     Co         -0.004          0.002          1.011
     10     Co         -0.002         -0.002          0.911
     11     Co          0.005         -0.002          0.896
     12     Co          0.008         -0.002          0.889
     13     Co          0.005         -0.002          0.896
     14     Co          0.004         -0.002          0.898
     15     Co          0.003         -0.002          0.901
     16     Co          0.004         -0.002          0.898
     17     Co          0.005         -0.002          0.896
     18     Co          0.003         -0.002          0.901
     19     Co          0.001         -0.003          0.900
     20     Co          0.011         -0.003          0.877
     21     Co          0.009         -0.003          0.881
     22     Co          0.003         -0.003          0.895
     23     Co          0.014         -0.003          0.870
     24     Co          0.005         -0.003          0.889
     25     Co          0.000         -0.003          0.901
     26     Co          0.004         -0.003          0.892
     27     Co          0.001         -0.003          0.900
     28     Co         -0.005          0.002          1.002
     29     Co         -0.011          0.002          1.015
     30     Co         -0.008          0.002          1.012
     31     Co         -0.004          0.002          0.999
     32     Co         -0.003          0.002          0.993
     33     Co         -0.010          0.002          1.015
     34     Co         -0.007          0.002          1.007
     35     Co         -0.005          0.002          1.002
     36     Co         -0.003          0.002          1.001

  dDsC method for vdW energy calculation
  ---------------------------------------------------------------------------------------------

  Parameters of vdW forcefield:
            C6dDsC            XDM            ALPHAts        RELVOL
            (au)              (au)            (au)                
   ---------------------------------------------------------------
   Co        432.203         10.184         50.716          1.014
   Co        445.774         10.266         51.891          1.038
   Co        431.930         10.182         50.697          1.014
   Co        421.510         10.120         49.777          0.996
   Co        426.115         10.149         50.178          1.004
   Co        416.924         10.091         49.377          0.988
   Co        427.852         10.157         50.342          1.007
   Co        428.951         10.164         50.436          1.009
   Co        430.077         10.171         50.532          1.011
   Co        291.679          7.653         45.547          0.911
   Co        286.310          7.641         44.782          0.896
   Co        283.874          7.635         44.432          0.889
   Co        286.247          7.640         44.777          0.896
   Co        287.294          7.643         44.922          0.898
   Co        288.368          7.647         45.068          0.901
   Co        287.283          7.643         44.921          0.898
   Co        286.352          7.641         44.785          0.896
   Co        288.215          7.645         45.055          0.901
   Co        284.609          7.562         44.977          0.900
   Co        277.008          7.545         43.875          0.877
   Co        278.176          7.549         44.037          0.881
   Co        282.973          7.559         44.735          0.895
   Co        274.478          7.540         43.503          0.870
   Co        281.124          7.555         44.468          0.889
   Co        285.092          7.564         45.042          0.901
   Co        281.863          7.556         44.578          0.892
   Co        284.704          7.563         44.987          0.900
   Co        422.170         10.074         50.083          1.002
   Co        429.752         10.119         50.754          1.015
   Co        428.259         10.119         50.576          1.012
   Co        421.082         10.070         49.972          0.999
   Co        413.003          9.942         49.646          0.993
   Co        429.972         10.126         50.746          1.015
   Co        424.346         10.075         50.336          1.007
   Co        422.266         10.074         50.094          1.002
   Co        421.979         10.079         50.035          1.001

  IVDW =   4
  VDW_RADIUS =    50.000 A
  VDW_S6 aka ATT0 =    13.960
  VDW_SR aka BTT0 =     1.320
  LVDW_ONECELL = F F F

  Number of pair interactions contributing to vdW energy:  289440
  Edisp (eV):   -8.27898
    FORVDW:  cpu time    9.75: real time    9.75

  FORCE on cell =-STRESS in cart. coord.  units (eV):
  Direction    XX          YY          ZZ          XY          YZ          ZX
  --------------------------------------------------------------------------------------
  Alpha Z   467.38327   467.38327   467.38327
  Ewald  183898.75769183898.86468************     0.08254     0.04693    -0.05893
  Hartree190410.60522190410.65175************     0.03579     0.01860    -0.02324
  E(xc)   -1660.23614 -1660.23438 -1662.87429     0.00155    -0.00020     0.00025
  Local  ************************382453.12589    -0.12194    -0.06610     0.08259
  n-local  -187.59529  -187.59841  -213.40607    -0.00292     0.00122    -0.00114
  augment  5603.39166  5603.40046  5600.08064     0.00744     0.00084    -0.00072
  Kinetic  2724.18651  2724.19208  2745.56459     0.00478     0.00180    -0.00215
  Fock        0.00000     0.00000     0.00000     0.00000     0.00000     0.00000
  vdW       -10.08910   -10.11225    -6.37521    -0.01998    -0.00210     0.00361
  -------------------------------------------------------------------------------------
  Total     -19.02507   -19.03944   -10.43228    -0.01275     0.00100     0.00027
  in kB     -25.95211   -25.97171   -14.23068    -0.01739     0.00136     0.00036
  external pressure =      -22.05 kB  Pullay stress =        0.00 kB


 VOLUME and BASIS-vectors are now :
 -----------------------------------------------------------------------------
  energy-cutoff  :      400.00
  volume of cell :     1174.53
      direct lattice vectors                 reciprocal lattice vectors
     7.410000000  0.000000000  0.000000000     0.134952767  0.077914995  0.000000000
    -3.705000000  6.417250000  0.000000000     0.000000000  0.155829989  0.000000000
     0.000000000  0.000000000 24.700000000     0.000000000  0.000000000  0.040485830

  length of vectors
     7.410000000  7.410001522 24.700000000     0.155830021  0.155829989  0.040485830


 FORCES acting on ions
    electron-ion (+dipol)            ewald-force                    non-local-force                 convergence-correction
 -----------------------------------------------------------------------------------------------
   -.620E-03 0.663E-02 0.280E+04   0.669E-03 -.635E-02 -.279E+04   0.510E-05 -.416E-04 -.126E+01   0.221E-04 -.241E-03 -.353E-03
   -.103E-03 0.761E-02 0.280E+04   0.816E-03 -.829E-02 -.279E+04   0.118E-04 0.606E-04 -.126E+01   -.707E-03 0.550E-03 -.333E-03
   0.736E-03 0.654E-02 0.280E+04   -.149E-02 -.559E-02 -.279E+04   -.245E-04 -.132E-04 -.126E+01   0.685E-03 -.932E-03 -.366E-03
   0.151E-03 0.619E-03 0.280E+04   -.114E-02 -.744E-03 -.279E+04   -.329E-04 -.129E-03 -.126E+01   0.952E-03 0.224E-03 -.163E-03
   0.403E-03 0.680E-03 0.280E+04   -.809E-03 -.165E-02 -.279E+04   0.433E-04 -.672E-04 -.126E+01   0.343E-03 0.975E-03 -.245E-03
   -.582E-03 0.688E-03 0.280E+04   0.197E-02 -.193E-02 -.279E+04   -.555E-04 -.874E-04 -.126E+01   -.130E-02 0.125E-02 -.205E-03
   0.348E-03 -.802E-02 0.280E+04   -.179E-02 0.906E-02 -.279E+04   0.712E-04 0.714E-04 -.126E+01   0.130E-02 -.986E-03 -.365E-03
   -.301E-04 -.735E-02 0.280E+04   0.247E-03 0.811E-02 -.279E+04   0.142E-04 -.496E-05 -.126E+01   -.241E-03 -.806E-03 -.454E-03
   -.392E-03 -.782E-02 0.280E+04   0.155E-02 0.788E-02 -.279E+04   -.149E-03 0.735E-04 -.126E+01   -.106E-02 -.306E-04 -.331E-03
   0.391E-02 0.256E-02 0.938E+03   -.411E-02 -.197E-02 -.938E+03   0.607E-04 -.460E-04 -.407E+00   0.182E-03 -.644E-03 0.102E-02
   -.289E-01 0.640E-02 0.938E+03   0.295E-01 -.653E-02 -.938E+03   0.168E-04 0.141E-03 -.407E+00   -.391E-03 0.114E-03 0.120E-02
   0.246E-01 0.556E-02 0.938E+03   -.250E-01 -.520E-02 -.938E+03   0.119E-03 0.128E-03 -.407E+00   0.209E-03 -.356E-03 0.176E-02
   0.400E-02 -.185E-01 0.938E+03   -.443E-02 0.182E-01 -.938E+03   0.909E-04 -.212E-03 -.407E+00   0.452E-03 0.422E-03 0.110E-02
   -.955E-02 0.491E-02 0.938E+03   0.101E-01 -.582E-02 -.938E+03   0.287E-05 -.355E-05 -.406E+00   -.477E-03 0.859E-03 0.113E-02
   0.883E-02 -.228E-01 0.938E+03   -.898E-02 0.226E-01 -.938E+03   -.537E-04 -.199E-03 -.407E+00   0.249E-04 0.356E-03 0.194E-02
   0.147E-02 -.192E-02 0.938E+03   -.178E-02 0.222E-02 -.938E+03   0.911E-04 -.958E-04 -.407E+00   0.318E-03 -.318E-03 0.153E-02
   0.149E-01 0.345E-02 0.938E+03   -.155E-01 -.312E-02 -.938E+03   0.213E-03 -.519E-05 -.407E+00   0.444E-03 -.401E-03 0.522E-03
   -.146E-01 0.197E-01 0.938E+03   0.155E-01 -.198E-01 -.938E+03   -.142E-03 -.907E-04 -.407E+00   -.762E-03 -.324E-04 0.817E-03
   0.559E-01 0.533E-01 -.923E+03   -.555E-01 -.541E-01 0.923E+03   0.308E-03 0.241E-03 0.353E+00   -.449E-03 0.210E-03 0.127E-02
   -.748E-02 0.325E+00 -.924E+03   0.731E-02 -.331E+00 0.923E+03   -.108E-03 -.176E-02 0.349E+00   0.425E-03 0.215E-03 0.141E-02
   -.654E-01 0.468E-01 -.923E+03   0.660E-01 -.473E-01 0.923E+03   -.267E-03 0.906E-04 0.353E+00   0.247E-04 0.580E-04 0.187E-02
   0.605E-02 -.125E-01 -.924E+03   -.577E-02 0.122E-01 0.923E+03   -.192E-03 -.346E-03 0.353E+00   -.793E-04 -.257E-04 0.148E-02
   0.271E+00 -.164E+00 -.923E+03   -.275E+00 0.166E+00 0.923E+03   0.119E-04 -.860E-04 0.352E+00   -.922E-05 0.449E-03 0.108E-02
   -.282E+00 -.163E+00 -.924E+03   0.287E+00 0.166E+00 0.923E+03   0.145E-02 0.901E-03 0.349E+00   0.883E-04 0.165E-04 0.152E-02
   0.763E-02 -.158E-02 -.924E+03   -.755E-02 0.174E-02 0.923E+03   0.424E-04 0.239E-03 0.352E+00   0.366E-03 -.213E-03 0.153E-02
   -.119E-01 -.673E-01 -.923E+03   0.126E-01 0.678E-01 0.923E+03   -.133E-03 -.538E-03 0.353E+00   -.334E-03 -.201E-03 0.141E-02
   -.105E-01 0.878E-02 -.923E+03   0.108E-01 -.852E-02 0.923E+03   -.326E-03 0.136E-03 0.352E+00   -.323E-04 -.508E-03 0.137E-02
   -.322E-01 0.320E-01 -.281E+04   0.325E-01 -.320E-01 0.281E+04   0.107E-02 -.789E-03 0.136E+01   -.566E-03 -.481E-05 0.110E-02
   0.483E-01 0.738E-01 -.281E+04   -.502E-01 -.746E-01 0.281E+04   0.185E-02 -.116E-03 0.136E+01   0.165E-04 -.171E-03 0.131E-02
   0.154E-01 0.503E-01 -.281E+04   -.158E-01 -.515E-01 0.281E+04   -.386E-04 0.363E-03 0.136E+01   0.550E-03 0.377E-04 0.109E-02
   0.770E-01 -.235E-01 -.281E+04   -.786E-01 0.237E-01 0.281E+04   0.144E-02 -.525E-03 0.136E+01   -.448E-03 0.291E-03 0.108E-02
   -.611E-01 0.650E-01 -.281E+04   0.615E-01 -.663E-01 0.281E+04   0.231E-03 -.194E-03 0.135E+01   0.498E-03 0.300E-03 0.109E-02
   -.343E-01 -.442E-01 -.281E+04   0.355E-01 0.450E-01 0.281E+04   -.453E-03 -.590E-03 0.136E+01   -.506E-04 -.753E-04 0.104E-02
   0.811E-02 -.992E-02 -.281E+04   -.858E-02 0.106E-01 0.281E+04   0.849E-03 -.859E-03 0.136E+01   0.103E-03 -.310E-03 0.111E-02
   0.599E-01 -.741E-01 -.281E+04   -.611E-01 0.755E-01 0.281E+04   0.728E-03 -.125E-02 0.136E+01   0.274E-04 0.283E-03 0.943E-03
   -.493E-01 -.926E-01 -.281E+04   0.494E-01 0.952E-01 0.281E+04   0.872E-03 -.163E-02 0.136E+01   -.130E-03 -.352E-03 0.114E-02
 -----------------------------------------------------------------------------------------------
   -.950E-03 0.735E-03 0.125E-01   -.560E-13 -.281E-12 0.546E-11   0.762E-02 -.724E-02 0.403E+00   0.455E-06 0.151E-05 0.311E-01
 
 
 POSITION                                       TOTAL-FORCE (eV/Angst)
 -----------------------------------------------------------------------------------
      1.23500      0.71303      0.00000        -0.000318      0.000327      0.479077
      3.70500      0.71303      0.00000        -0.000302      0.000245      0.479121
      6.17500      0.71303      0.00000        -0.000442      0.000329      0.479088
     -0.00000      2.85211      0.00000        -0.000438      0.000298      0.478670
      2.47000      2.85211      0.00000        -0.000378      0.000291      0.478810
      4.94000      2.85211      0.00000        -0.000278      0.000245      0.478558
      1.23500      4.99118      0.00000        -0.000411      0.000290      0.478854
      3.70500      4.99118      0.00000        -0.000372      0.000133      0.479049
     -1.23500      4.99118      0.00000        -0.000385      0.000233      0.478865
      0.00000      0.00000      2.01675         0.000099     -0.000070     -0.482950
      2.47000      0.00000      2.01675         0.000448      0.000193     -0.482663
      4.94000      0.00000      2.01675         0.000020      0.000169     -0.482670
      1.23500      2.13908      2.01675         0.000274      0.000010     -0.482853
      3.70500      2.13908      2.01675         0.000210     -0.000005     -0.482582
      6.17500      2.13908      2.01675        -0.000119     -0.000021     -0.482735
      0.00000      4.27816      2.01675         0.000269     -0.000139     -0.483104
      2.47000      4.27816      2.01675         0.000212     -0.000145     -0.482824
      4.94000      4.27816      2.01675         0.000020     -0.000411     -0.482739
      1.23498      0.71303      4.05905        -0.000214      0.000124      0.001620
      3.70500      0.71328      4.05942        -0.000326     -0.006297     -0.006765
      6.17499      0.71303      4.05908        -0.000222     -0.000038      0.001416
     -0.00005      2.85213      4.05909        -0.000403     -0.000405      0.001783
      2.47011      2.85202      4.05927        -0.004390      0.002625     -0.003119
      4.93979      2.85197      4.05940         0.005249      0.003541     -0.006706
      1.23493      4.99120      4.05906         0.000069      0.000530      0.001806
      3.70497      4.99120      4.05905        -0.000340     -0.000047      0.001814
     -1.23503      4.99119      4.05902        -0.000533      0.000283      0.001801
     -3.70479      6.41710      5.99953         0.000867     -0.000766      0.003110
     -1.23469      6.41710      5.99939        -0.000113     -0.000831      0.003713
      1.23522      6.41718      5.99947         0.000136     -0.000687      0.003593
      1.23515      2.13884      5.99944        -0.000473      0.000087      0.003594
      3.70490      2.13920      5.99805         0.001059     -0.001004      0.012868
      6.17514      2.13880      5.99948         0.000626      0.000252      0.003627
      0.00019      4.27797      5.99942         0.000535     -0.000424      0.003778
      2.47018      4.27808      5.99945        -0.000351      0.000493      0.003470
     -2.46978      4.27794      5.99944         0.000715      0.000591      0.003625
 -----------------------------------------------------------------------------------
    total drift:                                0.006666     -0.006500      0.446607


--------------------------------------------------------------------------------------------------------



  FREE ENERGIE OF THE ION-ELECTRON SYSTEM (eV)
  ---------------------------------------------------
  free  energy   TOTEN  =      -248.94952599 eV

  energy  without entropy=     -248.94222385  energy(sigma->0) =     -248.94770045
 


--------------------------------------------------------------------------------------------------------


    POTLOK:  cpu time    0.40: real time    0.40


--------------------------------------------------------------------------------------------------------


 stress matrix after NEB project (eV)
    -19.02507     -0.01275      0.00027
     -0.01275    -19.03944      0.00100
      0.00027      0.00100    -10.43228
  FORCES: max atom, RMS     0.012950    0.003726
  FORCE total and by dimension    0.022356    0.012868
  Stress total and by dimension   28.866698   19.039438


--------------------------------------------------------------------------------------------------------


  
 reached required accuracy - stopping structural energy minimisation
     LOOP+:  cpu time 1623.43: real time 1623.63
    4ORBIT:  cpu time    0.00: real time    0.00

 total amount of memory used by VASP on root node   169514. kBytes
========================================================================

   base      :      30000. kBytes
   nonlr-proj:       8662. kBytes
   fftplans  :       6203. kBytes
   grid      :      24935. kBytes
   one-center:       1119. kBytes
   wavefun   :      98595. kBytes
 
  
  
 General timing and accounting informations for this job:
 ========================================================
  
                  Total CPU time used (sec):     1629.152
                            User time (sec):     1627.676
                          System time (sec):        1.476
                         Elapsed time (sec):     1630.673
  
                   Maximum memory used (kb):      212344.
                   Average memory used (kb):           0.
  
                          Minor page faults:       255893
                          Major page faults:           80
                 Voluntary context switches:         1139
