 vasp.5.3.5 31Mar14 (build Jan 31 2018 16:04:57) complex                        
  
 executed on             LinuxIFC date 2018.12.17  16:27:48
 running on    8 total cores
 distrk:  each k-point on    8 cores,    1 groups
 distr:  one band on NCORES_PER_BAND=   1 cores,    8 groups


--------------------------------------------------------------------------------------------------------


 INCAR:
 POTCAR:    PAW_PBE Co 02Aug2007                  
 POTCAR:    PAW_PBE C 08Apr2002                   
 POTCAR:    PAW_PBE O 08Apr2002                   
 POTCAR:    PAW_PBE H 15Jun2001                   

 ----------------------------------------------------------------------------- 
|                                                                             |
|           W    W    AA    RRRRR   N    N  II  N    N   GGGG   !!!           |
|           W    W   A  A   R    R  NN   N  II  NN   N  G    G  !!!           |
|           W    W  A    A  R    R  N N  N  II  N N  N  G       !!!           |
|           W WW W  AAAAAA  RRRRR   N  N N  II  N  N N  G  GGG   !            |
|           WW  WW  A    A  R   R   N   NN  II  N   NN  G    G                |
|           W    W  A    A  R    R  N    N  II  N    N   GGGG   !!!           |
|                                                                             |
|      For optimal performance we recommend to set                            |
|        NCORE= 4 - approx SQRT( number of cores)                             |
|      NCORE specifies how many cores store one orbital (NPAR=cpu/NCORE).     |
|      This setting can  greatly improve the performance of VASP for DFT.     |
|      The default, NPAR=number of cores might be grossly inefficient         |
|      on modern multi-core architectures or massively parallel machines.     |
|      Do your own testing !!!!                                               |
|      Unfortunately you need to use the default for GW and RPA calculations. |
|      (for HF NCORE is supported but not extensively tested yet)             |
|                                                                             |
 ----------------------------------------------------------------------------- 

 POTCAR:    PAW_PBE Co 02Aug2007                  
   VRHFIN =Co: d8 s1                                                            
   LEXCH  = PE                                                                  
   EATOM  =   813.3670 eV,   59.7808 Ry                                         
                                                                                
   TITEL  = PAW_PBE Co 02Aug2007                                                
   LULTRA =        F    use ultrasoft PP ?                                      
   IUNSCR =        1    unscreen: 0-lin 1-nonlin 2-no                           
   RPACOR =    2.000    partial core radius                                     
   POMASS =   58.933; ZVAL   =    9.000    mass and valenz                      
   RCORE  =    2.300    outmost cutoff radius                                   
   RWIGS  =    2.460; RWIGS  =    1.302    wigner-seitz radius (au A)           
   ENMAX  =  267.968; ENMIN  =  200.976 eV                                      
   RCLOC  =    1.203    cutoff for local pot                                    
   LCOR   =        T    correct aug charges                                     
   LPAW   =        T    paw PP                                                  
   EAUG   =  477.818                                                            
   DEXC   =    0.000                                                            
   RMAX   =    2.360    core radius for proj-oper                               
   RAUG   =    1.300    factor for augmentation sphere                          
   RDEP   =    2.393    radius for radial grids                                 
   RDEPT  =    1.864    core radius for aug-charge                              
                                                                                
   Atomic configuration                                                         
    9 entries                                                                   
     n  l   j            E        occ.                                          
     1  0  0.50     -7587.6674   2.0000                                         
     2  0  0.50      -893.6084   2.0000                                         
     2  1  1.50      -764.5805   6.0000                                         
     3  0  0.50       -97.5973   2.0000                                         
     3  1  1.50       -60.9648   6.0000                                         
     3  2  2.50        -4.2382   8.0000                                         
     4  0  0.50        -4.3746   1.0000                                         
     4  1  1.50        -4.0817   0.0000                                         
     4  3  2.50        -1.3606   0.0000                                         
   Description                                                                  
     l       E           TYP  RCUT    TYP  RCUT                                 
     2     -4.2382362     23  2.300                                             
     2     -5.5988188     23  2.300                                             
     0     -4.3745797     23  2.300                                             
     0      5.7660125     23  2.300                                             
     1     -2.7211652     23  2.300                                             
     1     16.9860234     23  2.300                                             
  local pseudopotential read in
  partial core-charges read in
  partial kinetic energy density read in
  atomic valenz-charges read in
  non local Contribution for L=           2  read in
    real space projection operators read in
  non local Contribution for L=           2  read in
    real space projection operators read in
  non local Contribution for L=           0  read in
    real space projection operators read in
  non local Contribution for L=           0  read in
    real space projection operators read in
  non local Contribution for L=           1  read in
    real space projection operators read in
  non local Contribution for L=           1  read in
    real space projection operators read in
    PAW grid and wavefunctions read in
 
   number of l-projection  operators is LMAX  =           6
   number of lm-projection operators is LMMAX =          18
 
 POTCAR:    PAW_PBE C 08Apr2002                   
   VRHFIN =C: s2p2                                                              
   LEXCH  = PE                                                                  
   EATOM  =   147.1560 eV,   10.8157 Ry                                         
                                                                                
   TITEL  = PAW_PBE C 08Apr2002                                                 
   LULTRA =        F    use ultrasoft PP ?                                      
   IUNSCR =        1    unscreen: 0-lin 1-nonlin 2-no                           
   RPACOR =    1.200    partial core radius                                     
   POMASS =   12.011; ZVAL   =    4.000    mass and valenz                      
   RCORE  =    1.500    outmost cutoff radius                                   
   RWIGS  =    1.630; RWIGS  =    0.863    wigner-seitz radius (au A)           
   ENMAX  =  400.000; ENMIN  =  300.000 eV                                      
   ICORE  =        2    local potential                                         
   LCOR   =        T    correct aug charges                                     
   LPAW   =        T    paw PP                                                  
   EAUG   =  644.873                                                            
   DEXC   =    0.000                                                            
   RMAX   =    1.529    core radius for proj-oper                               
   RAUG   =    1.300    factor for augmentation sphere                          
   RDEP   =    1.501    radius for radial grids                                 
   RDEPT  =    1.300    core radius for aug-charge                              
                                                                                
   Atomic configuration                                                         
    4 entries                                                                   
     n  l   j            E        occ.                                          
     1  0  0.50      -273.3789   2.0000                                         
     2  0  0.50       -13.7508   2.0000                                         
     2  1  0.50        -5.2854   2.0000                                         
     3  2  1.50        -5.4423   0.0000                                         
   Description                                                                  
     l       E           TYP  RCUT    TYP  RCUT                                 
     0    -13.7508458     23  1.200                                             
     0     -8.2022199     23  1.200                                             
     1     -5.2854383     23  1.500                                             
     1     34.0145650     23  1.500                                             
     2     -5.4423304      7  1.500                                             
  local pseudopotential read in
  partial core-charges read in
  partial kinetic energy density read in
  atomic valenz-charges read in
  non local Contribution for L=           0  read in
    real space projection operators read in
  non local Contribution for L=           0  read in
    real space projection operators read in
  non local Contribution for L=           1  read in
    real space projection operators read in
  non local Contribution for L=           1  read in
    real space projection operators read in
    PAW grid and wavefunctions read in
 
   number of l-projection  operators is LMAX  =           4
   number of lm-projection operators is LMMAX =           8
 
 POTCAR:    PAW_PBE O 08Apr2002                   
   VRHFIN =O: s2p4                                                              
   LEXCH  = PE                                                                  
   EATOM  =   432.3788 eV,   31.7789 Ry                                         
                                                                                
   TITEL  = PAW_PBE O 08Apr2002                                                 
   LULTRA =        F    use ultrasoft PP ?                                      
   IUNSCR =        1    unscreen: 0-lin 1-nonlin 2-no                           
   RPACOR =    1.200    partial core radius                                     
   POMASS =   16.000; ZVAL   =    6.000    mass and valenz                      
   RCORE  =    1.520    outmost cutoff radius                                   
   RWIGS  =    1.550; RWIGS  =    0.820    wigner-seitz radius (au A)           
   ENMAX  =  400.000; ENMIN  =  300.000 eV                                      
   ICORE  =        2    local potential                                         
   LCOR   =        T    correct aug charges                                     
   LPAW   =        T    paw PP                                                  
   EAUG   =  605.392                                                            
   DEXC   =    0.000                                                            
   RMAX   =    1.553    core radius for proj-oper                               
   RAUG   =    1.300    factor for augmentation sphere                          
   RDEP   =    1.550    radius for radial grids                                 
   RDEPT  =    1.329    core radius for aug-charge                              
                                                                                
   Atomic configuration                                                         
    4 entries                                                                   
     n  l   j            E        occ.                                          
     1  0  0.50      -514.6923   2.0000                                         
     2  0  0.50       -23.9615   2.0000                                         
     2  1  0.50        -9.0305   4.0000                                         
     3  2  1.50        -9.5241   0.0000                                         
   Description                                                                  
     l       E           TYP  RCUT    TYP  RCUT                                 
     0    -23.9615318     23  1.200                                             
     0     -9.5240782     23  1.200                                             
     1     -9.0304911     23  1.520                                             
     1      8.1634956     23  1.520                                             
     2     -9.5240782      7  1.500                                             
  local pseudopotential read in
  partial core-charges read in
  partial kinetic energy density read in
  kinetic energy density of atom read in
  atomic valenz-charges read in
  non local Contribution for L=           0  read in
    real space projection operators read in
  non local Contribution for L=           0  read in
    real space projection operators read in
  non local Contribution for L=           1  read in
    real space projection operators read in
  non local Contribution for L=           1  read in
    real space projection operators read in
    PAW grid and wavefunctions read in
 
   number of l-projection  operators is LMAX  =           4
   number of lm-projection operators is LMMAX =           8
 
 POTCAR:    PAW_PBE H 15Jun2001                   
   VRHFIN =H: ultrasoft test                                                    
   LEXCH  = PE                                                                  
   EATOM  =    12.4884 eV,    0.9179 Ry                                         
                                                                                
   TITEL  = PAW_PBE H 15Jun2001                                                 
   LULTRA =        F    use ultrasoft PP ?                                      
   IUNSCR =        0    unscreen: 0-lin 1-nonlin 2-no                           
   RPACOR =    0.000    partial core radius                                     
   POMASS =    1.000; ZVAL   =    1.000    mass and valenz                      
   RCORE  =    1.100    outmost cutoff radius                                   
   RWIGS  =    0.700; RWIGS  =    0.370    wigner-seitz radius (au A)           
   ENMAX  =  250.000; ENMIN  =  200.000 eV                                      
   RCLOC  =    0.701    cutoff for local pot                                    
   LCOR   =        T    correct aug charges                                     
   LPAW   =        T    paw PP                                                  
   EAUG   =  400.000                                                            
   RMAX   =    1.123    core radius for proj-oper                               
   RAUG   =    1.200    factor for augmentation sphere                          
   RDEP   =    1.112    radius for radial grids                                 
   RDEPT  =    0.926    core radius for aug-charge                              
                                                                                
   Atomic configuration                                                         
    2 entries                                                                   
     n  l   j            E        occ.                                          
     1  0  0.50        -6.4927   1.0000                                         
     2  1  0.50        -3.4015   0.0000                                         
   Description                                                                  
     l       E           TYP  RCUT    TYP  RCUT                                 
     0     -6.4927494     23  1.100                                             
     0      6.8029130     23  1.100                                             
     1     -4.0817478     23  1.100                                             
  local pseudopotential read in
  atomic valenz-charges read in
  non local Contribution for L=           0  read in
    real space projection operators read in
  non local Contribution for L=           0  read in
    real space projection operators read in
  non local Contribution for L=           1  read in
    real space projection operators read in
    PAW grid and wavefunctions read in
 
   number of l-projection  operators is LMAX  =           3
   number of lm-projection operators is LMMAX =           5
 
 Optimization of the real space projectors (new method)

 maximal supplied QI-value         = 16.25
 optimisation between [QCUT,QGAM] = [ 10.24, 20.48] = [ 29.35,117.42] Ry 
 Optimized for a Real-space Cutoff    1.34 Angstroem

   l    n(q)    QCUT    max X(q) W(low)/X(q) W(high)/X(q)  e(spline) 
   2      7    10.239    65.824    0.41E-03    0.10E-02    0.11E-06
   2      7    10.239    61.429    0.41E-03    0.10E-02    0.11E-06
   0      8    10.239    56.174    0.42E-03    0.17E-03    0.96E-07
   0      8    10.239    31.263    0.38E-03    0.16E-03    0.87E-07
   1      8    10.239    19.828    0.20E-03    0.56E-03    0.13E-06
   1      8    10.239    15.139    0.15E-03    0.46E-03    0.11E-06
 Optimization of the real space projectors (new method)

 maximal supplied QI-value         = 25.13
 optimisation between [QCUT,QGAM] = [ 10.05, 20.36] = [ 28.30,116.06] Ry 
 Optimized for a Real-space Cutoff    1.30 Angstroem

   l    n(q)    QCUT    max X(q) W(low)/X(q) W(high)/X(q)  e(spline) 
   0      8    10.053   115.676    0.49E-03    0.72E-03    0.18E-06
   0      8    10.053    87.132    0.49E-03    0.71E-03    0.18E-06
   1      7    10.053     4.429    0.32E-03    0.31E-03    0.18E-06
   1      7    10.053     2.733    0.23E-03    0.19E-03    0.20E-06
 Optimization of the real space projectors (new method)

 maximal supplied QI-value         = 24.76
 optimisation between [QCUT,QGAM] = [ 10.15, 20.30] = [ 28.85,115.39] Ry 
 Optimized for a Real-space Cutoff    1.38 Angstroem

   l    n(q)    QCUT    max X(q) W(low)/X(q) W(high)/X(q)  e(spline) 
   0      8    10.150    20.381    0.22E-03    0.32E-03    0.29E-06
   0      8    10.150    15.268    0.23E-03    0.35E-03    0.30E-06
   1      8    10.150     5.964    0.46E-03    0.53E-03    0.21E-06
   1      8    10.150     5.382    0.38E-03    0.45E-03    0.19E-06
 Optimization of the real space projectors (new method)

 maximal supplied QI-value         = 34.20
 optimisation between [QCUT,QGAM] = [  9.92, 20.18] = [ 27.55,114.04] Ry 
 Optimized for a Real-space Cutoff    1.26 Angstroem

   l    n(q)    QCUT    max X(q) W(low)/X(q) W(high)/X(q)  e(spline) 
   0      8     9.919    19.460    0.50E-03    0.23E-03    0.29E-06
   0      8     9.919    12.209    0.48E-03    0.23E-03    0.28E-06
   1      7     9.919     4.655    0.17E-03    0.75E-03    0.30E-06
  PAW_PBE Co 02Aug2007                  :
 energy of atom  1       EATOM= -813.3670
 kinetic energy error for atom=    0.0093 (will be added to EATOM!!)
  PAW_PBE C 08Apr2002                   :
 energy of atom  2       EATOM= -147.1560
 kinetic energy error for atom=    0.0288 (will be added to EATOM!!)
  PAW_PBE O 08Apr2002                   :
 energy of atom  3       EATOM= -432.3788
 kinetic energy error for atom=    0.1156 (will be added to EATOM!!)
  PAW_PBE H 15Jun2001                   :
 energy of atom  4       EATOM=  -12.4884
 kinetic energy error for atom=    0.0098 (will be added to EATOM!!)
 
 
 POSCAR: Co C O H                                
  positions in direct lattice
  velocities in cartesian coordinates
 exchange correlation table for  LEXCH =        8
   RHO(1)=    0.500       N(1)  =     2000
   RHO(2)=  100.500       N(2)  =     4000

 VTST: version 3.1, (03/28/14)

 CHAIN: initializing optimizer
 
 OPT: Using VASP Conjugate-Gradient optimizer
 CHAIN: Read ICHAIN            0
 
 POSCAR: Co C O H                                
  positions in direct lattice
  velocities in cartesian coordinates
 


--------------------------------------------------------------------------------------------------------


 ion  position               nearest neighbor table
   1  0.222  0.111  0.000-   4 2.47   5 2.47  13 2.47   3 2.47   2 2.47  10 2.47  11 2.47   9 2.47
                             8 2.47
   2  0.556  0.111  0.000-   5 2.47   6 2.47  14 2.47   3 2.47   1 2.47  12 2.47  11 2.47   9 2.47
                             7 2.47
   3  0.889  0.111  0.000-   4 2.47   6 2.47  15 2.47   1 2.47   2 2.47  10 2.47  12 2.47   8 2.47
                             7 2.47
   4  0.222  0.444  0.000-   9 2.47   7 2.47   3 2.47   1 2.47   6 2.47   5 2.47  16 2.47  15 2.47
                            13 2.47
   5  0.556  0.444  0.000-   7 2.47   8 2.47   1 2.47   2 2.47   4 2.47   6 2.47  17 2.47  14 2.47
                            13 2.47
   6  0.889  0.444  0.000-   9 2.47   8 2.47   2 2.47   3 2.47   4 2.47   5 2.47  18 2.47  15 2.47
                            14 2.47
   7  0.556  0.778  0.000-   5 2.47   4 2.47  16 2.47  17 2.47   8 2.47   9 2.47  12 2.47   3 2.47
                             2 2.47
   8  0.889  0.778  0.000-   5 2.47   6 2.47  17 2.47  18 2.47   7 2.47   9 2.47  10 2.47   3 2.47
                             1 2.47
   9  0.222  0.778  0.000-   4 2.47   6 2.47  18 2.47  16 2.47   7 2.47   8 2.47  11 2.47   2 2.47
                             1 2.47
  10  0.000  0.000  0.082-  13 2.47  15 2.47  11 2.47  12 2.47  17 2.47  18 2.47   1 2.47   3 2.47
                             8 2.47  26 2.49  19 2.49  21 2.50
  11  0.333  0.000  0.082-  14 2.47  13 2.47  12 2.47  10 2.47  16 2.47  18 2.47   2 2.47   1 2.47
                             9 2.47  27 2.48  20 2.49  19 2.51
  12  0.667  0.000  0.082-  14 2.47  15 2.47  11 2.47  10 2.47  16 2.47  17 2.47   2 2.47   3 2.47
                             7 2.47  25 2.48  20 2.49  21 2.50
  13  0.333  0.333  0.082-  10 2.47  11 2.47   1 2.47  14 2.47  15 2.47  16 2.47  17 2.47   5 2.47
                             4 2.47  23 2.48  22 2.49  19 2.50
  14  0.667  0.333  0.082-  11 2.47  12 2.47   2 2.47  13 2.47  15 2.47  17 2.47  18 2.47   5 2.47
                             6 2.47  20 2.48  24 2.48  23 2.48
  15  1.000  0.333  0.082-  10 2.47  12 2.47   3 2.47  13 2.47  14 2.47  18 2.47  16 2.47   4 2.47
                             6 2.47  22 2.49  24 2.49  21 2.50
  16  0.333  0.667  0.082-   7 2.47   9 2.47  17 2.47  18 2.47  13 2.47  15 2.47   4 2.47  12 2.47
                            11 2.47  22 2.48  25 2.48  27 2.49
  17  0.667  0.667  0.082-   7 2.47   8 2.47  16 2.47  18 2.47  13 2.47  14 2.47   5 2.47  10 2.47
                            12 2.47  23 2.48  25 2.49  26 2.51
  18  1.000  0.667  0.082-   9 2.47   8 2.47  16 2.47  17 2.47  15 2.47  14 2.47   6 2.47  10 2.47
                            11 2.47  24 2.48  27 2.48  26 2.51
  19  0.220  0.112  0.165-  29 2.40  31 2.40  26 2.44  21 2.44  28 2.46  22 2.47  27 2.47  23 2.48
                            20 2.49  10 2.49  13 2.50  11 2.51
  20  0.556  0.113  0.164-  29 2.39  30 2.40  32 2.41  24 2.47  23 2.47  25 2.47  27 2.47  14 2.48
                            21 2.48  19 2.49  11 2.49  12 2.49
  21  0.890  0.111  0.165-  33 2.40  30 2.40  26 2.44  19 2.44  28 2.46  25 2.47  22 2.47  20 2.48
                            24 2.48  10 2.50  15 2.50  12 2.50
  22  0.222  0.446  0.164-  31 2.39  33 2.40  34 2.41  27 2.47  19 2.47  25 2.47  21 2.47  24 2.47
                            23 2.48  16 2.48  15 2.49  13 2.49
  23  0.556  0.446  0.164-  35 2.39  31 2.39  32 2.41  24 2.46  20 2.47  25 2.48  22 2.48  17 2.48
                            13 2.48  19 2.48  14 2.48  26 2.49
  24  0.888  0.445  0.164-  36 2.39  33 2.39  32 2.41  23 2.46  20 2.47  22 2.47  27 2.47  21 2.48
                            18 2.48  14 2.48  26 2.49  15 2.49
  25  0.555  0.779  0.164-  35 2.40  30 2.40  34 2.41  27 2.47  20 2.47  21 2.47  22 2.47  26 2.47
                            23 2.48  12 2.48  16 2.48  17 2.49
  26  0.891  0.782  0.165-  35 2.39  36 2.39  19 2.44  21 2.44  28 2.47  27 2.47  25 2.47  23 2.49
                            10 2.49  24 2.49  17 2.51  18 2.51
  27  0.222  0.779  0.164-  29 2.40  36 2.40  34 2.41  25 2.47  22 2.47  26 2.47  20 2.47  19 2.47
                            24 2.47  11 2.48  18 2.48  16 2.49
  28  0.001  0.003  0.246-  40 2.18  21 2.46  19 2.46  26 2.47  33 2.48  30 2.48  31 2.48  29 2.49
                            35 2.50  36 2.50
  29  0.335  0.001  0.242-  20 2.39  19 2.40  27 2.40  30 2.44  34 2.46  32 2.47  36 2.49  28 2.49
                            31 2.50
  30  0.664  0.001  0.242-  20 2.40  21 2.40  25 2.40  29 2.44  34 2.46  32 2.47  35 2.48  28 2.48
                            33 2.49
  31  0.336  0.338  0.242-  23 2.39  22 2.39  19 2.40  35 2.43  34 2.46  32 2.46  28 2.48  33 2.49
                            29 2.50
  32  0.667  0.335  0.243-  24 2.41  20 2.41  23 2.41  36 2.45  35 2.46  33 2.46  31 2.46  29 2.47
                            30 2.47
  33  1.000  0.337  0.242-  24 2.39  21 2.40  22 2.40  36 2.44  32 2.46  34 2.46  28 2.48  31 2.49
                            30 2.49
  34  0.333  0.668  0.243-  27 2.41  22 2.41  25 2.41  31 2.46  30 2.46  29 2.46  35 2.46  33 2.46
                            36 2.47
  35  0.665  0.666  0.242-  23 2.39  26 2.39  25 2.40  31 2.43  32 2.46  34 2.46  36 2.48  30 2.48
                            28 2.50
  36  0.999  0.665  0.242-  24 2.39  26 2.39  27 2.40  33 2.44  32 2.45  34 2.47  35 2.48  29 2.49
                            28 2.50
  37  0.283  0.255  0.379-  44 1.10  42 1.10  43 1.11  38 1.51
  38  0.173  0.026  0.365-  41 1.11  40 1.46  37 1.51  39 1.51
  39  0.111  0.882  0.414-  48 1.10  47 1.10  46 1.10  38 1.51
  40  0.986  0.981  0.335-  45 0.98  38 1.46  28 2.18
  41  0.274  0.994  0.338-  38 1.11
  42  0.186  0.290  0.406-  37 1.10
  43  0.318  0.350  0.342-  37 1.11
  44  0.432  0.300  0.399-  37 1.10
  45  0.892  0.830  0.334-  40 0.98
  46  0.032  0.718  0.401-  39 1.10
  47  0.007  0.907  0.440-  39 1.10
  48  0.250  0.912  0.437-  39 1.10
 
  LATTYP: Found a hexagonal cell.
 ALAT       =     7.4100015225
 C/A-ratio  =     3.3333326485
  
  Lattice vectors:
  
 A1 = (   7.4100000000,   0.0000000000,   0.0000000000)
 A2 = (  -3.7050000000,   6.4172500001,   0.0000000000)
 A3 = (   0.0000000000,   0.0000000000,  24.7000000000)


Analysis of symmetry for initial positions (statically):
=====================================================================
 Subroutine PRICEL returns:
 Original cell was already a primitive cell.
 

 Routine SETGRP: Setting up the symmetry group for a 
 hexagonal supercell.


 Subroutine GETGRP returns: Found  1 space group operations
 (whereof  1 operations were pure point group operations)
 out of a pool of 24 trial point group operations.


The static configuration has the point symmetry C_1 .


Analysis of symmetry for dynamics (positions and initial velocities):
=====================================================================
 Subroutine PRICEL returns:
 Original cell was already a primitive cell.
 

 Routine SETGRP: Setting up the symmetry group for a 
 hexagonal supercell.


 Subroutine GETGRP returns: Found  1 space group operations
 (whereof  1 operations were pure point group operations)
 out of a pool of 24 trial point group operations.


The dynamic configuration has the point symmetry C_1 .


Analysis of constrained symmetry for selective dynamics:
=====================================================================
 Subroutine PRICEL returns:
 Original cell was already a primitive cell.
 

 Routine SETGRP: Setting up the symmetry group for a 
 hexagonal supercell.


 Subroutine GETGRP returns: Found  1 space group operations
 (whereof  1 operations were pure point group operations)
 out of a pool of 24 trial point group operations.


The constrained configuration has the point symmetry C_1 .


Analysis of magnetic symmetry:
=====================================================================
 Subroutine PRICEL returns:
 Original cell was already a primitive cell.
 

 Subroutine MAGSYM returns: Found  1 space group operations
 (whereof  1 operations were pure point group operations)
 out of a pool of  1 trial space group operations
 (whereof  1 operations were pure point group operations)
 and found also     1 'primitive' translations


The magnetic configuration has the point symmetry C_1 .
 
 
 KPOINTS:  Automatic mesh                         

Automatic generation of k-mesh.
Space group operators:
 irot       det(A)        alpha          n_x          n_y          n_z        tau_x        tau_y        tau_z
    1     1.000000     0.000000     1.000000     0.000000     0.000000     0.000000     0.000000     0.000000
 
 Subroutine IBZKPT returns following result:
 ===========================================
 
 Found      5 irreducible k-points:
 
 Following reciprocal coordinates:
            Coordinates               Weight
  0.000000  0.000000  0.000000      1.000000
  0.333333  0.000000  0.000000      2.000000
  0.000000  0.333333  0.000000      2.000000
  0.333333  0.333333  0.000000      2.000000
 -0.333333  0.333333  0.000000      2.000000
 
 Following cartesian coordinates:
            Coordinates               Weight
  0.000000  0.000000  0.000000      1.000000
  0.111111  0.064150  0.000000      2.000000
  0.000000  0.128300  0.000000      2.000000
  0.111111  0.192450  0.000000      2.000000
 -0.111111  0.064150  0.000000      2.000000
 


--------------------------------------------------------------------------------------------------------




 Dimension of arrays:
   k-points           NKPTS =      5   k-points in BZ     NKDIM =      5   number of bands    NBANDS=    240
   number of dos      NEDOS =    301   number of ions     NIONS =     48
   non local maximal  LDIM  =      6   non local SUM 2l+1 LMDIM =     18
   total plane-waves  NPLWV = 163296
   max r-space proj   IRMAX =   1582   max aug-charges    IRDMAX=   5682
   dimension x,y,z NGX =    36 NGY =   36 NGZ =  126
   dimension x,y,z NGXF=    72 NGYF=   72 NGZF=  252
   support grid    NGXF=    72 NGYF=   72 NGZF=  252
   ions per type =              36   3   1   8
 NGX,Y,Z   is equivalent  to a cutoff of   8.08,  8.08,  8.48 a.u.
 NGXF,Y,Z  is equivalent  to a cutoff of  16.15, 16.15, 16.96 a.u.


 I would recommend the setting:
   dimension x,y,z NGX =    36 NGY =   36 NGZ =  121
 SYSTEM =  unknown system                          
 POSCAR =  Co C O H                                

 Startparameter for this run:
   NWRITE =      2    write-flag & timer
   PREC   = normal    normal or accurate (medium, high low for compatibility)
   ISTART =      0    job   : 0-new  1-cont  2-samecut
   ICHARG =      2    charge: 1-file 2-atom 10-const
   ISPIN  =      2    spin polarized calculation?
   LNONCOLLINEAR =      F non collinear calculations
   LSORBIT =      F    spin-orbit coupling
   INIWAV =      1    electr: 0-lowe 1-rand  2-diag
   LASPH  =      F    aspherical Exc in radial PAW
   METAGGA=      F    non-selfconsistent MetaGGA calc.
   LSOL =      F    Solvation

 Electronic Relaxation 1
   ENCUT  =  400.0 eV  29.40 Ry    5.42 a.u.  12.08 12.08 40.28*2*pi/ulx,y,z
   ENINI  =  400.0     initial cutoff
   ENAUG  =  644.9 eV  augmentation charge cutoff
   NELM   =     60;   NELMIN=  2; NELMDL= -5     # of ELM steps 
   EDIFF  = 0.1E-05   stopping-criterion for ELM
   LREAL  =      T    real-space projection
   NLSPLINE    = F    spline interpolate recip. space projectors
   LCOMPAT=      F    compatible to vasp.4.4
   GGA_COMPAT  = T    GGA compatible to vasp.4.4-vasp.4.6
   LMAXPAW     = -100 max onsite density
   LMAXMIX     =    2 max onsite mixed and CHGCAR
   VOSKOWN=      0    Vosko Wilk Nusair interpolation
   ROPT   =   -0.00050  -0.00050  -0.00050  -0.00050
 Ionic relaxation
   EDIFFG = -.1E-01   stopping-criterion for IOM
   NSW    =    500    number of steps for IOM
   NBLOCK =      1;   KBLOCK =    500    inner block; outer block 
   IBRION =      2    ionic relax: 0-MD 1-quasi-New 2-CG
   NFREE  =      1    steps in history (QN), initial steepest desc. (CG)
   ISIF   =      2    stress and relaxation
   IWAVPR =     11    prediction:  0-non 1-charg 2-wave 3-comb
   ISYM   =      2    0-nonsym 1-usesym 2-fastsym
   LCORR  =      T    Harris-Foulkes like correction to forces

   POTIM  = 0.5000    time-step for ionic-motion
   TEIN   =    0.0    initial temperature
   TEBEG  =    0.0;   TEEND  =   0.0 temperature during run
   SMASS  =  -3.00    Nose mass-parameter (am)
   estimated Nose-frequenzy (Omega)   =  0.10E-29 period in steps =****** mass=  -0.125E-26a.u.
   SCALEE = 1.0000    scale energy and forces
   NPACO  =    256;   APACO  = 16.0  distance and # of slots for P.C.
   PSTRESS=    0.0 pullay stress

  Mass of Ions in am
   POMASS =  58.93 12.01 16.00  1.00
  Ionic Valenz
   ZVAL   =   9.00  4.00  6.00  1.00
  Atomic Wigner-Seitz radii
   RWIGS  =  -1.00 -1.00 -1.00 -1.00
  virtual crystal weights 
   VCA    =   1.00  1.00  1.00  1.00
   NELECT =     350.0000    total number of electrons
   NUPDOWN=      -1.0000    fix difference up-down

 DOS related values:
   EMIN   =  10.00;   EMAX   =-10.00  energy-range for DOS
   EFERMI =   0.00
   ISMEAR =     2;   SIGMA  =   0.20  broadening in eV -4-tet -1-fermi 0-gaus

 Electronic relaxation 2 (details)
   IALGO  =     38    algorithm
   LDIAG  =      T    sub-space diagonalisation (order eigenvalues)
   LSUBROT=      F    optimize rotation matrix (better conditioning)
   TURBO    =      0    0=normal 1=particle mesh
   IRESTART =      0    0=no restart 2=restart with 2 vectors
   NREBOOT  =      0    no. of reboots
   NMIN     =      0    reboot dimension
   EREF     =   0.00    reference energy to select bands
   IMIX   =      4    mixing-type and parameters
     AMIX     =   0.40;   BMIX     =  1.00
     AMIX_MAG =   1.60;   BMIX_MAG =  1.00
     AMIN     =   0.10
     WC   =   100.;   INIMIX=   1;  MIXPRE=   1;  MAXMIX= -45

 Intra band minimization:
   WEIMIN = 0.0010     energy-eigenvalue tresh-hold
   EBREAK =  0.10E-08  absolut break condition
   DEPER  =   0.30     relativ break condition  

   TIME   =   0.40     timestep for ELM

  volume/ion in A,a.u.               =      24.47       165.13
  Fermi-wavevector in a.u.,A,eV,Ry     =   1.093477  2.066371 16.268363  1.195691
  Thomas-Fermi vector in A             =   2.229763
 
 Write flags
   LWAVE  =      F    write WAVECAR
   LCHARG =      F    write CHGCAR
   LVTOT  =      F    write LOCPOT, total local potential
   LVHAR  =      F    write LOCPOT, Hartree potential only
   LELF   =      F    write electronic localiz. function (ELF)
   LORBIT =      0    0 simple, 1 ext, 2 COOP (PROOUT)


 Dipole corrections
   LMONO  =      F    monopole corrections only (constant potential shift)
   LDIPOL =      F    correct potential (dipole corrections)
   IDIPOL =      3    1-x, 2-y, 3-z, 4-all directions 
   EPSILON=  1.0000000 bulk dielectric constant

 Exchange correlation treatment:
   GGA     =    PE    GGA type
   LEXCH   =     8    internal setting for exchange type
   VOSKOWN=      0    Vosko Wilk Nusair interpolation
   LHFCALC =     F    Hartree Fock is set to
   LHFONE  =     F    Hartree Fock one center treatment
   AEXX    =    0.0000 exact exchange contribution

 Linear response parameters
   LEPSILON=     F    determine dielectric tensor
   LRPA    =     F    only Hartree local field effects (RPA)
   LNABLA  =     F    use nabla operator in PAW spheres
   LVEL    =     F    velocity operator in full k-point grid
   LINTERFAST=   F  fast interpolation
   KINTER  =     0    interpolate to denser k-point grid
   CSHIFT  =0.1000    complex shift for real part using Kramers Kronig
   OMEGAMAX=  -1.0    maximum frequency
   DEG_THRESHOLD= 0.2000000E-02 threshold for treating states as degnerate
   RTIME   =    0.100 relaxation time in fs

 Orbital magnetization related:
   ORBITALMAG=     F  switch on orbital magnetization
   LCHIMAG   =     F  perturbation theory with respect to B field
   DQ        =  0.001000  dq finite difference perturbation B field



--------------------------------------------------------------------------------------------------------


 conjugate gradient relaxation of ions
   using selective dynamics as specified on POSCAR
 charge density and potential will be updated during run
 spin polarized calculation
 Variant of blocked Davidson
 Davidson routine will perform the subspace rotation
 perform sub-space diagonalisation
    after iterative eigenvector-optimisation
 modified Broyden-mixing scheme, WC =      100.0
 initial mixing is a Kerker type mixing with AMIX =  0.4000 and BMIX =      1.0000
 Hartree-type preconditioning will be used
 using additional bands           65
 real space projection scheme for non local part
 use partial core corrections
 calculate Harris-corrections to forces 
   (improved forces if not selfconsistent)
 use gradient corrections 
 use of overlap-Matrix (Vanderbilt PP)
 Methfessel and Paxton  Order N= 2 SIGMA  =   0.20


--------------------------------------------------------------------------------------------------------


  energy-cutoff  :      400.00
  volume of cell :     1174.53
      direct lattice vectors                 reciprocal lattice vectors
     7.410000000  0.000000000  0.000000000     0.134952767  0.077914995  0.000000000
    -3.705000000  6.417250000  0.000000000     0.000000000  0.155829989  0.000000000
     0.000000000  0.000000000 24.700000000     0.000000000  0.000000000  0.040485830

  length of vectors
     7.410000000  7.410001522 24.700000000     0.155830021  0.155829989  0.040485830


 
 k-points in units of 2pi/SCALE and weight:  Automatic mesh                         
   0.00000000  0.00000000  0.00000000       0.111
   0.11111111  0.06415001  0.00000000       0.222
   0.00000000  0.12830002  0.00000000       0.222
   0.11111111  0.19245004  0.00000000       0.222
  -0.11111111  0.06415001  0.00000000       0.222
 
 k-points in reciprocal lattice and weights:  Automatic mesh                         
   0.00000000  0.00000000  0.00000000       0.111
   0.33333333  0.00000000  0.00000000       0.222
   0.00000000  0.33333333  0.00000000       0.222
   0.33333333  0.33333333  0.00000000       0.222
  -0.33333333  0.33333333  0.00000000       0.222
 
 position of ions in fractional coordinates (direct lattice) 
   0.22222237  0.11111141  0.00000000
   0.55555571  0.11111141  0.00000000
   0.88888904  0.11111141  0.00000000
   0.22222206  0.44444412  0.00000000
   0.55555539  0.44444412  0.00000000
   0.88888872  0.44444412  0.00000000
   0.55555431  0.77777528  0.00000000
   0.88888764  0.77777528  0.00000000
   0.22222097  0.77777528  0.00000000
   0.00000000  0.00000000  0.08164980
   0.33333333  0.00000000  0.08164980
   0.66666667  0.00000000  0.08164980
   0.33333302  0.33333270  0.08164980
   0.66666635  0.33333270  0.08164980
   0.99999968  0.33333270  0.08164980
   0.33333309  0.66666617  0.08164980
   0.66666642  0.66666617  0.08164980
   0.99999975  0.66666617  0.08164980
   0.21991296  0.11155183  0.16483038
   0.55586348  0.11275786  0.16409266
   0.88989097  0.11136004  0.16480780
   0.22217025  0.44592050  0.16410233
   0.55608532  0.44566203  0.16385508
   0.88846759  0.44547481  0.16404899
   0.55549372  0.77938441  0.16393384
   0.89053126  0.78207668  0.16487234
   0.22238990  0.77907784  0.16400079
   0.00084072  0.00349826  0.24647220
   0.33521456  0.00099813  0.24212953
   0.66445478  0.00082442  0.24239591
   0.33611074  0.33828712  0.24206159
   0.66695172  0.33524468  0.24274877
   0.99998572  0.33701250  0.24234845
   0.33349793  0.66849153  0.24277292
   0.66452930  0.66572187  0.24188393
   0.99908392  0.66531749  0.24208548
   0.28343088  0.25476056  0.37916028
   0.17345725  0.02586535  0.36514685
   0.11134485  0.88216763  0.41366737
   0.98636987  0.98142368  0.33466659
   0.27402607  0.99440850  0.33783915
   0.18608026  0.29023504  0.40572169
   0.31835011  0.35002925  0.34208923
   0.43204340  0.29987663  0.39946873
   0.89235996  0.82953558  0.33393150
   0.03185432  0.71793767  0.40069603
   0.00685663  0.90673667  0.44044109
   0.25040871  0.91241440  0.43683676
 
 position of ions in cartesian coordinates  (Angst):
   1.23500000  0.71302972  0.00000000
   3.70500000  0.71302972  0.00000000
   6.17500000  0.71302972  0.00000000
  -0.00000000  2.85210900  0.00000000
   2.47000000  2.85210900  0.00000000
   4.94000000  2.85210900  0.00000000
   1.23500000  4.99117840  0.00000000
   3.70500000  4.99117840  0.00000000
  -1.23500000  4.99117840  0.00000000
   0.00000000  0.00000000  2.01675006
   2.47000000  0.00000000  2.01675006
   4.94000000  0.00000000  2.01675006
   1.23500000  2.13907928  2.01675006
   3.70500000  2.13907928  2.01675006
   6.17500000  2.13907928  2.01675006
   0.00000000  4.27816350  2.01675006
   2.47000000  4.27816350  2.01675006
   4.94000000  4.27816350  2.01675006
   1.21625553  0.71585597  4.07131033
   3.70118054  0.72359536  4.05308860
   6.18150315  0.71462519  4.07075263
  -0.00585392  2.86158334  4.05332743
   2.46941437  2.85992466  4.04722036
   4.93306069  2.85872325  4.05201015
   1.22858920  5.00150458  4.04916583
   3.70124250  5.01878161  4.07234676
  -1.23857423  4.99953725  4.05081961
  -0.00673132  0.02244924  6.08786334
   2.48024183  0.00640524  5.98059940
   4.92055540  0.00529052  5.98717904
   1.23722679  2.17087304  5.97892126
   3.70003073  2.15134893  5.99589461
   6.16126291  2.16269346  5.98600677
  -0.00554145  4.28987729  5.99649113
   2.45766259  4.27210370  5.97453301
   4.93821057  4.26950864  5.97951128
   1.15633494  1.63486219  9.36525885
   1.18948713  0.16598440  9.01912710
  -2.44336571  5.66109023 10.21758392
   3.67282600  6.29804110  8.26626470
  -1.65375027  6.38136793  8.34462695
   0.30353394  1.86251080 10.02132569
   1.06211593  2.24622521  8.44960396
   2.09039872  1.92438330  9.86687755
   3.53895794  5.32333721  8.24810800
  -2.42391854  4.60718549  9.89719203
  -3.30865176  5.81875588 10.87889497
  -1.52496678  5.85519132 10.78986797
 


--------------------------------------------------------------------------------------------------------


 k-point  1 :   0.0000 0.0000 0.0000  plane waves:   21237
 k-point  2 :   0.3333 0.0000 0.0000  plane waves:   21309
 k-point  3 :   0.0000 0.3333 0.0000  plane waves:   21309
 k-point  4 :   0.3333 0.3333 0.0000  plane waves:   21354
 k-point  5 :  -0.3333 0.3333 0.0000  plane waves:   21309

 maximum and minimum number of plane-waves per node :     21354    21237

 maximum number of plane-waves:     21354
 maximum index in each direction: 
   IXMAX=   12   IYMAX=   12   IZMAX=   40
   IXMIN=  -12   IYMIN=  -12   IZMIN=  -40

 WARNING: aliasing errors must be expected set NGX to  50 to avoid them
 WARNING: aliasing errors must be expected set NGY to  50 to avoid them
 WARNING: aliasing errors must be expected set NGZ to 162 to avoid them
 aliasing errors are usually negligible using standard VASP settings
 and one can safely disregard these warnings

 serial   3D FFT for wavefunctions
 parallel 3D FFT for charge:
    minimum data exchange during FFTs selected (reduces bandwidth)


 total amount of memory used by VASP on root node   182353. kBytes
========================================================================

   base      :      30000. kBytes
   nonlr-proj:       9789. kBytes
   fftplans  :       6203. kBytes
   grid      :      28885. kBytes
   one-center:       1492. kBytes
   wavefun   :     105984. kBytes
 
     INWAV:  cpu time    0.00: real time    0.00
 Broyden mixing: mesh for mixing (old mesh)
   NGX = 25   NGY = 25   NGZ = 81
  (NGX  = 72   NGY  = 72   NGZ  =252)
  gives a total of  50625 points

 initial charge density was supplied:
 charge density of overlapping atoms calculated
 number of electron     350.0000000 magnetization      58.6800000
 keeping initial charge density in first step


--------------------------------------------------------------------------------------------------------


 Maximum index for non-local projection operator         1481
 Maximum index for augmentation-charges          722 (set IRDMAX)


--------------------------------------------------------------------------------------------------------


 First call to EWALD:  gamma=   0.168
 Maximum number of real-space cells 4x 4x 1
 Maximum number of reciprocal cells 2x 2x 6

 FEWALD executed in parallel
    FEWALD:  cpu time    0.00: real time    0.00


----------------------------------------- Iteration    1(   1)  ---------------------------------------


    POTLOK:  cpu time    0.33: real time    0.33
    SETDIJ:  cpu time    0.05: real time    0.05
     EDDAV:  cpu time   25.42: real time   25.45
       DOS:  cpu time    0.00: real time    0.00
    --------------------------------------------
      LOOP:  cpu time   25.80: real time   25.83

 eigenvalue-minimisations  :  4800
 total energy-change (2. order) : 0.2655577E+04  (-0.1283997E+05)
 number of electron     350.0000000 magnetization      58.6800000
 augmentation part      350.0000000 magnetization      58.6800000

 Free energy of the ion-electron system (eV)
  ---------------------------------------------------
  alpha Z        PSCENC =       535.95746614
  Ewald energy   TEWEN  =    162814.46897043
  -Hartree energ DENC   =   -191945.96776061
  -exchange      EXHF   =         0.00000000
  -V(xc)+E(xc)   XCENC  =       692.29467224
  PAW double counting   =     26634.84132827   -28546.63490259
  entropy T*S    EENTRO =        -0.01162819
  eigenvalues    EBANDS =      2216.27605809
  atomic energy  EATOM  =     30254.35235659
  Solvation contrib.  Ediel  =         0.00000000
  ---------------------------------------------------
  free energy    TOTEN  =      2655.57656036 eV

  energy without entropy =     2655.58818855  energy(sigma->0) =     2655.57946741


--------------------------------------------------------------------------------------------------------




----------------------------------------- Iteration    1(   2)  ---------------------------------------


     EDDAV:  cpu time   25.69: real time   25.69
       DOS:  cpu time    0.00: real time    0.00
    --------------------------------------------
      LOOP:  cpu time   25.69: real time   25.69

 eigenvalue-minimisations  :  4808
 total energy-change (2. order) :-0.2668015E+04  (-0.2499799E+04)
 number of electron     350.0000000 magnetization      58.6800000
 augmentation part      350.0000000 magnetization      58.6800000

 Free energy of the ion-electron system (eV)
  ---------------------------------------------------
  alpha Z        PSCENC =       535.95746614
  Ewald energy   TEWEN  =    162814.46897043
  -Hartree energ DENC   =   -191945.96776061
  -exchange      EXHF   =         0.00000000
  -V(xc)+E(xc)   XCENC  =       692.29467224
  PAW double counting   =     26634.84132827   -28546.63490259
  entropy T*S    EENTRO =        -0.00155644
  eigenvalues    EBANDS =      -451.74920358
  atomic energy  EATOM  =     30254.35235659
  Solvation contrib.  Ediel  =         0.00000000
  ---------------------------------------------------
  free energy    TOTEN  =       -12.43862957 eV

  energy without entropy =      -12.43707312  energy(sigma->0) =      -12.43824045


--------------------------------------------------------------------------------------------------------




----------------------------------------- Iteration    1(   3)  ---------------------------------------


     EDDAV:  cpu time   30.53: real time   30.53
       DOS:  cpu time    0.00: real time    0.00
    --------------------------------------------
      LOOP:  cpu time   30.53: real time   30.54

 eigenvalue-minimisations  :  6104
 total energy-change (2. order) :-0.3084071E+03  (-0.2703193E+03)
 number of electron     350.0000000 magnetization      58.6800000
 augmentation part      350.0000000 magnetization      58.6800000

 Free energy of the ion-electron system (eV)
  ---------------------------------------------------
  alpha Z        PSCENC =       535.95746614
  Ewald energy   TEWEN  =    162814.46897043
  -Hartree energ DENC   =   -191945.96776061
  -exchange      EXHF   =         0.00000000
  -V(xc)+E(xc)   XCENC  =       692.29467224
  PAW double counting   =     26634.84132827   -28546.63490259
  entropy T*S    EENTRO =         0.13990965
  eigenvalues    EBANDS =      -760.29776552
  atomic energy  EATOM  =     30254.35235659
  Solvation contrib.  Ediel  =         0.00000000
  ---------------------------------------------------
  free energy    TOTEN  =      -320.84572540 eV

  energy without entropy =     -320.98563506  energy(sigma->0) =     -320.88070282


--------------------------------------------------------------------------------------------------------




----------------------------------------- Iteration    1(   4)  ---------------------------------------


     EDDAV:  cpu time   27.77: real time   27.78
       DOS:  cpu time    0.00: real time    0.00
    --------------------------------------------
      LOOP:  cpu time   27.78: real time   27.78

 eigenvalue-minimisations  :  5320
 total energy-change (2. order) :-0.2512995E+02  (-0.2464335E+02)
 number of electron     350.0000000 magnetization      58.6800000
 augmentation part      350.0000000 magnetization      58.6800000

 Free energy of the ion-electron system (eV)
  ---------------------------------------------------
  alpha Z        PSCENC =       535.95746614
  Ewald energy   TEWEN  =    162814.46897043
  -Hartree energ DENC   =   -191945.96776061
  -exchange      EXHF   =         0.00000000
  -V(xc)+E(xc)   XCENC  =       692.29467224
  PAW double counting   =     26634.84132827   -28546.63490259
  entropy T*S    EENTRO =         0.15180510
  eigenvalues    EBANDS =      -785.43961235
  atomic energy  EATOM  =     30254.35235659
  Solvation contrib.  Ediel  =         0.00000000
  ---------------------------------------------------
  free energy    TOTEN  =      -345.97567679 eV

  energy without entropy =     -346.12748189  energy(sigma->0) =     -346.01362806


--------------------------------------------------------------------------------------------------------




----------------------------------------- Iteration    1(   5)  ---------------------------------------


     EDDAV:  cpu time   34.06: real time   34.07
       DOS:  cpu time    0.00: real time    0.00
    CHARGE:  cpu time    1.07: real time    1.07
    MIXING:  cpu time    0.00: real time    0.01
    --------------------------------------------
      LOOP:  cpu time   35.14: real time   35.15

 eigenvalue-minimisations  :  6808
 total energy-change (2. order) :-0.8402184E+00  (-0.8367035E+00)
 number of electron     349.9998647 magnetization      58.3388106
 augmentation part      166.8987279 magnetization      46.2928551

 Broyden mixing:
  rms(total) = 0.64034E+01    rms(broyden)= 0.64031E+01
  rms(prec ) = 0.66639E+01
  weight for this iteration     100.00

 Free energy of the ion-electron system (eV)
  ---------------------------------------------------
  alpha Z        PSCENC =       535.95746614
  Ewald energy   TEWEN  =    162814.46897043
  -Hartree energ DENC   =   -191945.96776061
  -exchange      EXHF   =         0.00000000
  -V(xc)+E(xc)   XCENC  =       692.29467224
  PAW double counting   =     26634.84132827   -28546.63490259
  entropy T*S    EENTRO =         0.15201679
  eigenvalues    EBANDS =      -786.28004244
  atomic energy  EATOM  =     30254.35235659
  Solvation contrib.  Ediel  =         0.00000000
  ---------------------------------------------------
  free energy    TOTEN  =      -346.81589519 eV

  energy without entropy =     -346.96791198  energy(sigma->0) =     -346.85389938


--------------------------------------------------------------------------------------------------------




----------------------------------------- Iteration    1(   6)  ---------------------------------------


    POTLOK:  cpu time    0.33: real time    0.33
    SETDIJ:  cpu time    0.05: real time    0.05
     EDDAV:  cpu time   30.67: real time   30.67
       DOS:  cpu time    0.00: real time    0.00
    CHARGE:  cpu time    1.19: real time    1.19
    MIXING:  cpu time    0.00: real time    0.01
    --------------------------------------------
      LOOP:  cpu time   32.25: real time   32.25

 eigenvalue-minimisations  :  6056
 total energy-change (2. order) :-0.6482493E+02  (-0.3838514E+02)
 number of electron     349.9997932 magnetization      57.8114312
 augmentation part      189.5388515 magnetization      51.1700058

 Broyden mixing:
  rms(total) = 0.12775E+02    rms(broyden)= 0.12775E+02
  rms(prec ) = 0.14225E+02
  weight for this iteration     100.00

 eigenvalues of (default mixing * dielectric matrix)
  average eigenvalue GAMMA=   0.2341
  0.2341

 Free energy of the ion-electron system (eV)
  ---------------------------------------------------
  alpha Z        PSCENC =       535.95746614
  Ewald energy   TEWEN  =    162814.46897043
  -Hartree energ DENC   =   -191589.14827322
  -exchange      EXHF   =         0.00000000
  -V(xc)+E(xc)   XCENC  =       667.27750742
  PAW double counting   =     29451.65529671   -31178.18251788
  entropy T*S    EENTRO =         0.02208914
  eigenvalues    EBANDS =     -1368.04371766
  atomic energy  EATOM  =     30254.35235659
  Solvation contrib.  Ediel  =         0.00000000
  ---------------------------------------------------
  free energy    TOTEN  =      -411.64082234 eV

  energy without entropy =     -411.66291147  energy(sigma->0) =     -411.64634462


--------------------------------------------------------------------------------------------------------




----------------------------------------- Iteration    1(   7)  ---------------------------------------


    POTLOK:  cpu time    0.32: real time    0.32
    SETDIJ:  cpu time    0.05: real time    0.05
     EDDAV:  cpu time   27.88: real time   27.89
       DOS:  cpu time    0.00: real time    0.00
    CHARGE:  cpu time    1.15: real time    1.15
    MIXING:  cpu time    0.01: real time    0.01
    --------------------------------------------
      LOOP:  cpu time   29.41: real time   29.41

 eigenvalue-minimisations  :  5392
 total energy-change (2. order) : 0.5012522E+02  (-0.2410907E+02)
 number of electron     349.9998640 magnetization      56.9187545
 augmentation part      195.3839717 magnetization      47.2495389

 Broyden mixing:
  rms(total) = 0.95870E+01    rms(broyden)= 0.95866E+01
  rms(prec ) = 0.11070E+02
  weight for this iteration     100.00

 eigenvalues of (default mixing * dielectric matrix)
  average eigenvalue GAMMA=   0.3375
  0.5467  0.1283

 Free energy of the ion-electron system (eV)
  ---------------------------------------------------
  alpha Z        PSCENC =       535.95746614
  Ewald energy   TEWEN  =    162814.46897043
  -Hartree energ DENC   =   -191338.77017351
  -exchange      EXHF   =         0.00000000
  -V(xc)+E(xc)   XCENC  =       666.13533067
  PAW double counting   =     29985.68756680   -31740.19230642
  entropy T*S    EENTRO =         0.03993513
  eigenvalues    EBANDS =     -1539.19474701
  atomic energy  EATOM  =     30254.35235659
  Solvation contrib.  Ediel  =         0.00000000
  ---------------------------------------------------
  free energy    TOTEN  =      -361.51560118 eV

  energy without entropy =     -361.55553631  energy(sigma->0) =     -361.52558496


--------------------------------------------------------------------------------------------------------




----------------------------------------- Iteration    1(   8)  ---------------------------------------


    POTLOK:  cpu time    0.33: real time    0.33
    SETDIJ:  cpu time    0.05: real time    0.05
     EDDAV:  cpu time   32.68: real time   32.68
       DOS:  cpu time    0.00: real time    0.00
    CHARGE:  cpu time    1.18: real time    1.18
    MIXING:  cpu time    0.01: real time    0.01
    --------------------------------------------
      LOOP:  cpu time   34.25: real time   34.25

 eigenvalue-minimisations  :  6536
 total energy-change (2. order) : 0.1037606E+02  (-0.9485663E+01)
 number of electron     349.9998251 magnetization      56.6310694
 augmentation part      188.8810538 magnetization      47.5013599

 Broyden mixing:
  rms(total) = 0.84339E+01    rms(broyden)= 0.84337E+01
  rms(prec ) = 0.11275E+02
  weight for this iteration     100.00

 eigenvalues of (default mixing * dielectric matrix)
  average eigenvalue GAMMA=   0.3030
  0.5431  0.2473  0.1187

 Free energy of the ion-electron system (eV)
  ---------------------------------------------------
  alpha Z        PSCENC =       535.95746614
  Ewald energy   TEWEN  =    162814.46897043
  -Hartree energ DENC   =   -191769.02001409
  -exchange      EXHF   =         0.00000000
  -V(xc)+E(xc)   XCENC  =       669.25928221
  PAW double counting   =     31355.86051892   -33197.52359153
  entropy T*S    EENTRO =         0.00265203
  eigenvalues    EBANDS =     -1014.49717728
  atomic energy  EATOM  =     30254.35235659
  Solvation contrib.  Ediel  =         0.00000000
  ---------------------------------------------------
  free energy    TOTEN  =      -351.13953658 eV

  energy without entropy =     -351.14218861  energy(sigma->0) =     -351.14019959


--------------------------------------------------------------------------------------------------------




----------------------------------------- Iteration    1(   9)  ---------------------------------------


    POTLOK:  cpu time    0.33: real time    0.33
    SETDIJ:  cpu time    0.05: real time    0.05
     EDDAV:  cpu time   35.65: real time   35.65
       DOS:  cpu time    0.00: real time    0.00
    CHARGE:  cpu time    1.09: real time    1.09
    MIXING:  cpu time    0.00: real time    0.01
    --------------------------------------------
      LOOP:  cpu time   37.13: real time   37.13

 eigenvalue-minimisations  :  7264
 total energy-change (2. order) : 0.9662175E+01  (-0.8218015E+01)
 number of electron     349.9998336 magnetization      55.9321703
 augmentation part      185.8730672 magnetization      47.0364976

 Broyden mixing:
  rms(total) = 0.78842E+01    rms(broyden)= 0.78840E+01
  rms(prec ) = 0.10629E+02
  weight for this iteration     100.00

 eigenvalues of (default mixing * dielectric matrix)
  average eigenvalue GAMMA=   0.3543
  0.6114  0.6114  0.1206  0.0736

 Free energy of the ion-electron system (eV)
  ---------------------------------------------------
  alpha Z        PSCENC =       535.95746614
  Ewald energy   TEWEN  =    162814.46897043
  -Hartree energ DENC   =   -191796.13109963
  -exchange      EXHF   =         0.00000000
  -V(xc)+E(xc)   XCENC  =       670.08732299
  PAW double counting   =     31639.26460381   -33496.02698168
  entropy T*S    EENTRO =         0.00268232
  eigenvalues    EBANDS =      -963.45268205
  atomic energy  EATOM  =     30254.35235659
  Solvation contrib.  Ediel  =         0.00000000
  ---------------------------------------------------
  free energy    TOTEN  =      -341.47736110 eV

  energy without entropy =     -341.48004341  energy(sigma->0) =     -341.47803168


--------------------------------------------------------------------------------------------------------




----------------------------------------- Iteration    1(  10)  ---------------------------------------


    POTLOK:  cpu time    0.29: real time    0.29
    SETDIJ:  cpu time    0.05: real time    0.05
     EDDAV:  cpu time   29.08: real time   29.08
       DOS:  cpu time    0.00: real time    0.00
    CHARGE:  cpu time    1.20: real time    1.20
    MIXING:  cpu time    0.01: real time    0.01
    --------------------------------------------
      LOOP:  cpu time   30.63: real time   30.63

 eigenvalue-minimisations  :  5688
 total energy-change (2. order) :-0.2706960E+02  (-0.7364527E+01)
 number of electron     349.9998288 magnetization      54.8108470
 augmentation part      187.2590834 magnetization      47.7585363

 Broyden mixing:
  rms(total) = 0.11009E+02    rms(broyden)= 0.11008E+02
  rms(prec ) = 0.12704E+02
  weight for this iteration     100.00

 eigenvalues of (default mixing * dielectric matrix)
  average eigenvalue GAMMA=   0.3736
  0.7846  0.7846  0.1162  0.1162  0.0666

 Free energy of the ion-electron system (eV)
  ---------------------------------------------------
  alpha Z        PSCENC =       535.95746614
  Ewald energy   TEWEN  =    162814.46897043
  -Hartree energ DENC   =   -191803.96039729
  -exchange      EXHF   =         0.00000000
  -V(xc)+E(xc)   XCENC  =       670.64996503
  PAW double counting   =     32107.79412903   -33981.87891712
  entropy T*S    EENTRO =        -0.01442981
  eigenvalues    EBANDS =      -965.91610666
  atomic energy  EATOM  =     30254.35235659
  Solvation contrib.  Ediel  =         0.00000000
  ---------------------------------------------------
  free energy    TOTEN  =      -368.54696366 eV

  energy without entropy =     -368.53253386  energy(sigma->0) =     -368.54335621


--------------------------------------------------------------------------------------------------------




----------------------------------------- Iteration    1(  11)  ---------------------------------------


    POTLOK:  cpu time    0.33: real time    0.33
    SETDIJ:  cpu time    0.05: real time    0.05
     EDDAV:  cpu time   28.66: real time   28.66
       DOS:  cpu time    0.00: real time    0.00
    CHARGE:  cpu time    1.18: real time    1.18
    MIXING:  cpu time    0.01: real time    0.01
    --------------------------------------------
      LOOP:  cpu time   30.22: real time   30.23

 eigenvalue-minimisations  :  5632
 total energy-change (2. order) : 0.6154397E+02  (-0.5328381E+01)
 number of electron     349.9998438 magnetization      54.6170428
 augmentation part      185.9056598 magnetization      42.8176940

 Broyden mixing:
  rms(total) = 0.46314E+01    rms(broyden)= 0.46311E+01
  rms(prec ) = 0.50115E+01
  weight for this iteration     100.00

 eigenvalues of (default mixing * dielectric matrix)
  average eigenvalue GAMMA=   0.3508
  0.8824  0.6971  0.2029  0.1291  0.1291  0.0641

 Free energy of the ion-electron system (eV)
  ---------------------------------------------------
  alpha Z        PSCENC =       535.95746614
  Ewald energy   TEWEN  =    162814.46897043
  -Hartree energ DENC   =   -191793.83613838
  -exchange      EXHF   =         0.00000000
  -V(xc)+E(xc)   XCENC  =       672.66124585
  PAW double counting   =     32724.64653210   -34622.51549974
  entropy T*S    EENTRO =        -0.05267370
  eigenvalues    EBANDS =      -892.68525532
  atomic energy  EATOM  =     30254.35235659
  Solvation contrib.  Ediel  =         0.00000000
  ---------------------------------------------------
  free energy    TOTEN  =      -307.00299604 eV

  energy without entropy =     -306.95032235  energy(sigma->0) =     -306.98982762


--------------------------------------------------------------------------------------------------------




----------------------------------------- Iteration    1(  12)  ---------------------------------------


    POTLOK:  cpu time    0.33: real time    0.33
    SETDIJ:  cpu time    0.05: real time    0.05
     EDDAV:  cpu time   26.77: real time   26.77
       DOS:  cpu time    0.00: real time    0.00
    CHARGE:  cpu time    1.20: real time    1.20
    MIXING:  cpu time    0.01: real time    0.01
    --------------------------------------------
      LOOP:  cpu time   28.35: real time   28.36

 eigenvalue-minimisations  :  5192
 total energy-change (2. order) : 0.3799622E+01  (-0.2665341E+01)
 number of electron     349.9998453 magnetization      54.5210964
 augmentation part      185.5721906 magnetization      42.9091668

 Broyden mixing:
  rms(total) = 0.42062E+01    rms(broyden)= 0.42060E+01
  rms(prec ) = 0.45964E+01
  weight for this iteration     100.00

 eigenvalues of (default mixing * dielectric matrix)
  average eigenvalue GAMMA=   0.3286
  1.0853  0.4827  0.2768  0.0655  0.1424  0.1424  0.1055

 Free energy of the ion-electron system (eV)
  ---------------------------------------------------
  alpha Z        PSCENC =       535.95746614
  Ewald energy   TEWEN  =    162814.46897043
  -Hartree energ DENC   =   -191811.77659849
  -exchange      EXHF   =         0.00000000
  -V(xc)+E(xc)   XCENC  =       673.45978654
  PAW double counting   =     32939.79015671   -34842.51154991
  entropy T*S    EENTRO =        -0.00618913
  eigenvalues    EBANDS =      -866.93777263
  atomic energy  EATOM  =     30254.35235659
  Solvation contrib.  Ediel  =         0.00000000
  ---------------------------------------------------
  free energy    TOTEN  =      -303.20337377 eV

  energy without entropy =     -303.19718464  energy(sigma->0) =     -303.20182648


--------------------------------------------------------------------------------------------------------




----------------------------------------- Iteration    1(  13)  ---------------------------------------


    POTLOK:  cpu time    0.34: real time    0.33
    SETDIJ:  cpu time    0.05: real time    0.05
     EDDAV:  cpu time   27.11: real time   27.11
       DOS:  cpu time    0.00: real time    0.00
    CHARGE:  cpu time    1.18: real time    1.18
    MIXING:  cpu time    0.01: real time    0.01
    --------------------------------------------
      LOOP:  cpu time   28.68: real time   28.68

 eigenvalue-minimisations  :  5256
 total energy-change (2. order) : 0.4724978E+01  (-0.1454554E+01)
 number of electron     349.9998456 magnetization      54.6553307
 augmentation part      185.4567483 magnetization      42.8139040

 Broyden mixing:
  rms(total) = 0.31787E+01    rms(broyden)= 0.31785E+01
  rms(prec ) = 0.36758E+01
  weight for this iteration     100.00

 eigenvalues of (default mixing * dielectric matrix)
  average eigenvalue GAMMA=   0.3313
  1.1635  0.3580  0.3580  0.3519  0.1237  0.1237  0.0645  0.1071

 Free energy of the ion-electron system (eV)
  ---------------------------------------------------
  alpha Z        PSCENC =       535.95746614
  Ewald energy   TEWEN  =    162814.46897043
  -Hartree energ DENC   =   -191840.39773571
  -exchange      EXHF   =         0.00000000
  -V(xc)+E(xc)   XCENC  =       673.90995710
  PAW double counting   =     33145.79345564   -35052.08719712
  entropy T*S    EENTRO =         0.04870981
  eigenvalues    EBANDS =      -830.52437843
  atomic energy  EATOM  =     30254.35235659
  Solvation contrib.  Ediel  =         0.00000000
  ---------------------------------------------------
  free energy    TOTEN  =      -298.47839557 eV

  energy without entropy =     -298.52710538  energy(sigma->0) =     -298.49057302


--------------------------------------------------------------------------------------------------------




----------------------------------------- Iteration    1(  14)  ---------------------------------------


    POTLOK:  cpu time    0.33: real time    0.33
    SETDIJ:  cpu time    0.05: real time    0.05
     EDDAV:  cpu time   28.66: real time   28.66
       DOS:  cpu time    0.00: real time    0.00
    CHARGE:  cpu time    1.20: real time    1.20
    MIXING:  cpu time    0.01: real time    0.01
    --------------------------------------------
      LOOP:  cpu time   30.25: real time   30.25

 eigenvalue-minimisations  :  5616
 total energy-change (2. order) :-0.1190446E+01  (-0.8038873E+00)
 number of electron     349.9998392 magnetization      54.7542722
 augmentation part      185.1664733 magnetization      43.6577405

 Broyden mixing:
  rms(total) = 0.24189E+01    rms(broyden)= 0.24188E+01
  rms(prec ) = 0.26022E+01
  weight for this iteration     100.00

 eigenvalues of (default mixing * dielectric matrix)
  average eigenvalue GAMMA=   0.3350
  1.2038  0.4181  0.4181  0.4066  0.0646  0.1404  0.1404  0.1112  0.1112

 Free energy of the ion-electron system (eV)
  ---------------------------------------------------
  alpha Z        PSCENC =       535.95746614
  Ewald energy   TEWEN  =    162814.46897043
  -Hartree energ DENC   =   -191875.84082184
  -exchange      EXHF   =         0.00000000
  -V(xc)+E(xc)   XCENC  =       674.41692927
  PAW double counting   =     33258.04853153   -35166.38991834
  entropy T*S    EENTRO =         0.02271692
  eigenvalues    EBANDS =      -794.70507212
  atomic energy  EATOM  =     30254.35235659
  Solvation contrib.  Ediel  =         0.00000000
  ---------------------------------------------------
  free energy    TOTEN  =      -299.66884142 eV

  energy without entropy =     -299.69155834  energy(sigma->0) =     -299.67452065


--------------------------------------------------------------------------------------------------------




----------------------------------------- Iteration    1(  15)  ---------------------------------------


    POTLOK:  cpu time    0.33: real time    0.33
    SETDIJ:  cpu time    0.05: real time    0.05
     EDDAV:  cpu time   26.56: real time   26.56
       DOS:  cpu time    0.00: real time    0.00
    CHARGE:  cpu time    1.23: real time    1.23
    MIXING:  cpu time    0.01: real time    0.01
    --------------------------------------------
      LOOP:  cpu time   28.17: real time   28.18

 eigenvalue-minimisations  :  5112
 total energy-change (2. order) : 0.8392028E-01  (-0.4165520E+00)
 number of electron     349.9998412 magnetization      54.8296841
 augmentation part      185.0345356 magnetization      44.3414666

 Broyden mixing:
  rms(total) = 0.17969E+01    rms(broyden)= 0.17968E+01
  rms(prec ) = 0.18755E+01
  weight for this iteration     100.00

 eigenvalues of (default mixing * dielectric matrix)
  average eigenvalue GAMMA=   0.3501
  1.2511  0.5069  0.5069  0.4403  0.2386  0.0646  0.1344  0.1234  0.1234  0.1118

 Free energy of the ion-electron system (eV)
  ---------------------------------------------------
  alpha Z        PSCENC =       535.95746614
  Ewald energy   TEWEN  =    162814.46897043
  -Hartree energ DENC   =   -191879.49994706
  -exchange      EXHF   =         0.00000000
  -V(xc)+E(xc)   XCENC  =       674.74886448
  PAW double counting   =     33333.04490610   -35242.57335932
  entropy T*S    EENTRO =         0.03335286
  eigenvalues    EBANDS =      -790.11753136
  atomic energy  EATOM  =     30254.35235659
  Solvation contrib.  Ediel  =         0.00000000
  ---------------------------------------------------
  free energy    TOTEN  =      -299.58492114 eV

  energy without entropy =     -299.61827400  energy(sigma->0) =     -299.59325936


--------------------------------------------------------------------------------------------------------




----------------------------------------- Iteration    1(  16)  ---------------------------------------


    POTLOK:  cpu time    0.33: real time    0.33
    SETDIJ:  cpu time    0.05: real time    0.05
     EDDAV:  cpu time   28.99: real time   29.00
       DOS:  cpu time    0.00: real time    0.00
    CHARGE:  cpu time    1.18: real time    1.18
    MIXING:  cpu time    0.01: real time    0.01
    --------------------------------------------
      LOOP:  cpu time   30.57: real time   30.57

 eigenvalue-minimisations  :  5680
 total energy-change (2. order) :-0.8024480E+00  (-0.2393226E+00)
 number of electron     349.9998460 magnetization      54.8907771
 augmentation part      184.9673019 magnetization      45.2017561

 Broyden mixing:
  rms(total) = 0.18481E+01    rms(broyden)= 0.18480E+01
  rms(prec ) = 0.19794E+01
  weight for this iteration     100.00

 eigenvalues of (default mixing * dielectric matrix)
  average eigenvalue GAMMA=   0.3885
  1.3833  0.6576  0.6576  0.4307  0.4307  0.0646  0.1624  0.1416  0.1156  0.1156
  0.1139

 Free energy of the ion-electron system (eV)
  ---------------------------------------------------
  alpha Z        PSCENC =       535.95746614
  Ewald energy   TEWEN  =    162814.46897043
  -Hartree energ DENC   =   -191870.40886420
  -exchange      EXHF   =         0.00000000
  -V(xc)+E(xc)   XCENC  =       675.05363602
  PAW double counting   =     33416.44799331   -35326.42852069
  entropy T*S    EENTRO =        -0.01119634
  eigenvalues    EBANDS =      -799.81921036
  atomic energy  EATOM  =     30254.35235659
  Solvation contrib.  Ediel  =         0.00000000
  ---------------------------------------------------
  free energy    TOTEN  =      -300.38736910 eV

  energy without entropy =     -300.37617275  energy(sigma->0) =     -300.38457001


--------------------------------------------------------------------------------------------------------




----------------------------------------- Iteration    1(  17)  ---------------------------------------


    POTLOK:  cpu time    0.33: real time    0.33
    SETDIJ:  cpu time    0.05: real time    0.05
     EDDAV:  cpu time   27.48: real time   27.48
       DOS:  cpu time    0.00: real time    0.00
    CHARGE:  cpu time    1.20: real time    1.20
    MIXING:  cpu time    0.02: real time    0.01
    --------------------------------------------
      LOOP:  cpu time   29.08: real time   29.08

 eigenvalue-minimisations  :  5336
 total energy-change (2. order) :-0.2136708E+01  (-0.2500834E+00)
 number of electron     349.9998473 magnetization      54.9731215
 augmentation part      185.4829001 magnetization      46.2652489

 Broyden mixing:
  rms(total) = 0.19043E+01    rms(broyden)= 0.19043E+01
  rms(prec ) = 0.20709E+01
  weight for this iteration     100.00

 eigenvalues of (default mixing * dielectric matrix)
  average eigenvalue GAMMA=   0.3965
  1.4461  0.7499  0.7499  0.4125  0.4125  0.2842  0.0646  0.1576  0.1242  0.1242
  0.1165  0.1165

 Free energy of the ion-electron system (eV)
  ---------------------------------------------------
  alpha Z        PSCENC =       535.95746614
  Ewald energy   TEWEN  =    162814.46897043
  -Hartree energ DENC   =   -191872.84143377
  -exchange      EXHF   =         0.00000000
  -V(xc)+E(xc)   XCENC  =       675.06765949
  PAW double counting   =     33640.14400933   -35549.45904442
  entropy T*S    EENTRO =        -0.00161455
  eigenvalues    EBANDS =      -800.21244592
  atomic energy  EATOM  =     30254.35235659
  Solvation contrib.  Ediel  =         0.00000000
  ---------------------------------------------------
  free energy    TOTEN  =      -302.52407667 eV

  energy without entropy =     -302.52246213  energy(sigma->0) =     -302.52367304


--------------------------------------------------------------------------------------------------------




----------------------------------------- Iteration    1(  18)  ---------------------------------------


    POTLOK:  cpu time    0.34: real time    0.34
    SETDIJ:  cpu time    0.05: real time    0.05
     EDDAV:  cpu time   26.46: real time   26.46
       DOS:  cpu time    0.00: real time    0.00
    CHARGE:  cpu time    1.23: real time    1.23
    MIXING:  cpu time    0.02: real time    0.01
    --------------------------------------------
      LOOP:  cpu time   28.09: real time   28.09

 eigenvalue-minimisations  :  5112
 total energy-change (2. order) :-0.4819566E+00  (-0.2367988E+00)
 number of electron     349.9998453 magnetization      55.1922588
 augmentation part      185.7668010 magnetization      47.1873824

 Broyden mixing:
  rms(total) = 0.17452E+01    rms(broyden)= 0.17451E+01
  rms(prec ) = 0.18795E+01
  weight for this iteration     100.00

 eigenvalues of (default mixing * dielectric matrix)
  average eigenvalue GAMMA=   0.4248
  1.5358  0.8709  0.8709  0.5087  0.4452  0.4452  0.1748  0.0646  0.1335  0.1335
  0.1143  0.1143  0.1105

 Free energy of the ion-electron system (eV)
  ---------------------------------------------------
  alpha Z        PSCENC =       535.95746614
  Ewald energy   TEWEN  =    162814.46897043
  -Hartree energ DENC   =   -191881.46150620
  -exchange      EXHF   =         0.00000000
  -V(xc)+E(xc)   XCENC  =       675.32375392
  PAW double counting   =     33737.64358259   -35645.93693996
  entropy T*S    EENTRO =        -0.00102925
  eigenvalues    EBANDS =      -793.35268754
  atomic energy  EATOM  =     30254.35235659
  Solvation contrib.  Ediel  =         0.00000000
  ---------------------------------------------------
  free energy    TOTEN  =      -303.00603329 eV

  energy without entropy =     -303.00500405  energy(sigma->0) =     -303.00577598


--------------------------------------------------------------------------------------------------------




----------------------------------------- Iteration    1(  19)  ---------------------------------------


    POTLOK:  cpu time    0.32: real time    0.32
    SETDIJ:  cpu time    0.05: real time    0.05
     EDDAV:  cpu time   27.85: real time   27.85
       DOS:  cpu time    0.00: real time    0.00
    CHARGE:  cpu time    1.21: real time    1.21
    MIXING:  cpu time    0.02: real time    0.02
    --------------------------------------------
      LOOP:  cpu time   29.44: real time   29.45

 eigenvalue-minimisations  :  5456
 total energy-change (2. order) :-0.6547559E+00  (-0.2357492E+00)
 number of electron     349.9998425 magnetization      55.4098192
 augmentation part      186.0913461 magnetization      48.3326537

 Broyden mixing:
  rms(total) = 0.13950E+01    rms(broyden)= 0.13950E+01
  rms(prec ) = 0.14917E+01
  weight for this iteration     100.00

 eigenvalues of (default mixing * dielectric matrix)
  average eigenvalue GAMMA=   0.4350
  1.5161  0.9534  0.9534  0.6019  0.4771  0.4771  0.2911  0.0646  0.1452  0.1452
  0.1186  0.1186  0.1138  0.1138

 Free energy of the ion-electron system (eV)
  ---------------------------------------------------
  alpha Z        PSCENC =       535.95746614
  Ewald energy   TEWEN  =    162814.46897043
  -Hartree energ DENC   =   -191897.83198609
  -exchange      EXHF   =         0.00000000
  -V(xc)+E(xc)   XCENC  =       675.71671298
  PAW double counting   =     33828.80337190   -35735.44261883
  entropy T*S    EENTRO =        -0.01721682
  eigenvalues    EBANDS =      -779.66784544
  atomic energy  EATOM  =     30254.35235659
  Solvation contrib.  Ediel  =         0.00000000
  ---------------------------------------------------
  free energy    TOTEN  =      -303.66078915 eV

  energy without entropy =     -303.64357233  energy(sigma->0) =     -303.65648495


--------------------------------------------------------------------------------------------------------




----------------------------------------- Iteration    1(  20)  ---------------------------------------


    POTLOK:  cpu time    0.36: real time    0.35
    SETDIJ:  cpu time    0.05: real time    0.05
     EDDAV:  cpu time   26.88: real time   26.88
       DOS:  cpu time    0.00: real time    0.00
    CHARGE:  cpu time    0.87: real time    0.87
    MIXING:  cpu time    0.02: real time    0.01
    --------------------------------------------
      LOOP:  cpu time   28.17: real time   28.17

 eigenvalue-minimisations  :  5600
 total energy-change (2. order) :-0.5477298E+00  (-0.1527080E+00)
 number of electron     349.9998414 magnetization      55.5492608
 augmentation part      186.2377933 magnetization      49.0839723

 Broyden mixing:
  rms(total) = 0.13192E+01    rms(broyden)= 0.13192E+01
  rms(prec ) = 0.14186E+01
  weight for this iteration     100.00

 eigenvalues of (default mixing * dielectric matrix)
  average eigenvalue GAMMA=   0.4251
  1.4603  1.0058  1.0058  0.6187  0.4984  0.4984  0.3404  0.0646  0.1490  0.1490
  0.1254  0.1254  0.1134  0.1134  0.1086

 Free energy of the ion-electron system (eV)
[...]
     33     Co          0.000          0.004          1.002
     34     Co         -0.019         -0.009          1.016
     35     Co         -0.031         -0.016          0.998
     36     Co         -0.025         -0.011          1.014
     37     C          -0.137         -0.115          0.833
     38     C           0.071          0.046          0.648
     39     C          -0.148         -0.113          0.834
     40     O          -0.181         -0.137          1.024
     41     H           0.017          0.007          0.862
     42     H           0.055          0.043          0.732
     43     H           0.026          0.013          0.884
     44     H           0.060          0.047          0.733
     45     H           0.175          0.122          0.691
     46     H           0.052          0.042          0.738
     47     H           0.056          0.044          0.725
     48     H           0.064          0.052          0.710

  dDsC method for vdW energy calculation
  ---------------------------------------------------------------------------------------------

  Parameters of vdW forcefield:
            C6dDsC            XDM            ALPHAts        RELVOL
            (au)              (au)            (au)                
   ---------------------------------------------------------------
   Co        435.180         10.233         50.824          1.016
   Co        448.159         10.302         51.986          1.040
   Co        434.705         10.225         50.805          1.016
   Co        423.787         10.156         49.869          0.997
   Co        428.330         10.183         50.268          1.005
   Co        419.060         10.124         49.466          0.989
   Co        430.048         10.191         50.431          1.009
   Co        431.686         10.208         50.538          1.011
   Co        432.374         10.207         50.623          1.012
   Co        292.831          7.659         45.693          0.914
   Co        287.670          7.645         44.971          0.899
   Co        284.766          7.637         44.563          0.891
   Co        287.203          7.642         44.910          0.898
   Co        287.607          7.636         45.014          0.900
   Co        289.468          7.650         45.221          0.904
   Co        287.587          7.634         45.018          0.900
   Co        287.129          7.643         44.898          0.898
   Co        289.333          7.648         45.212          0.904
   Co        282.883          7.568         44.672          0.893
   Co        285.856          7.560         45.186          0.904
   Co        281.311          7.563         44.449          0.889
   Co        283.092          7.550         44.810          0.896
   Co        283.223          7.552         44.818          0.896
   Co        282.002          7.550         44.635          0.893
   Co        281.097          7.544         44.531          0.891
   Co        286.275          7.579         45.140          0.903
   Co        279.909          7.543         44.347          0.887
   Co        354.514          9.110         46.505          0.930
   Co        386.246          9.588         48.142          0.963
   Co        432.614         10.206         50.655          1.013
   Co        392.860          9.630         48.751          0.975
   Co        441.960         10.400         50.783          1.016
   Co        426.585         10.176         50.096          1.002
   Co        438.746         10.318         50.816          1.016
   Co        419.777         10.048         49.924          0.998
   Co        431.141         10.158         50.723          1.014
   C          46.423          5.549          9.999          0.833
   C          30.953          4.754          7.781          0.648
   C          45.974          5.489         10.009          0.834
   O          28.795          6.224          5.529          1.024
   H           8.175          2.518          3.879          0.862
   H           4.915          1.783          3.295          0.732
   H           8.762          2.631          3.980          0.884
   H           5.012          1.816          3.298          0.733
   H           5.660          2.175          3.109          0.691
   H           5.529          1.990          3.321          0.738
   H           4.666          1.710          3.261          0.725
   H           4.405          1.648          3.194          0.710

  IVDW =   4
  VDW_RADIUS =    50.000 A
  VDW_S6 aka ATT0 =    13.960
  VDW_SR aka BTT0 =     1.320
  LVDW_ONECELL = F F F

  Number of pair interactions contributing to vdW energy:  516067
  Edisp (eV):   -8.95920
    FORVDW:  cpu time   17.66: real time   17.66

  FORCE on cell =-STRESS in cart. coord.  units (eV):
  Direction    XX          YY          ZZ          XY          YZ          ZX
  --------------------------------------------------------------------------------------
  Alpha Z   535.95747   535.95747   535.95747
  Ewald  180804.36257181071.11794************    91.44805   -32.91661   195.22211
  Hartree188036.80942188218.99888************    54.17038   -26.59964   128.34521
  E(xc)   -1760.63607 -1760.39677 -1762.47223     0.12022     0.03905     0.17354
  Local  ************************376033.71720  -138.39164    62.59824  -315.60231
  n-local  -245.70155  -246.20586  -271.21023     0.85701    -0.00644     1.59388
  augment  5609.77595  5609.33115  5606.32769    -0.45679    -0.24958    -0.55646
  Kinetic  3122.25595  3118.36763  3149.70789    -7.60557    -3.22662    -8.81031
  Fock        0.00000     0.00000     0.00000     0.00000     0.00000     0.00000
  vdW       -10.79599   -11.02034    -7.69003    -0.04444     0.03286    -0.05296
  -------------------------------------------------------------------------------------
  Total     -20.17784   -19.88486   -11.32376     0.09722    -0.32873     0.31269
  in kB     -27.52461   -27.12495   -15.44675     0.13262    -0.44843     0.42654
  external pressure =      -23.37 kB  Pullay stress =        0.00 kB


 VOLUME and BASIS-vectors are now :
 -----------------------------------------------------------------------------
  energy-cutoff  :      400.00
  volume of cell :     1174.53
      direct lattice vectors                 reciprocal lattice vectors
     7.410000000  0.000000000  0.000000000     0.134952767  0.077914995  0.000000000
    -3.705000000  6.417250000  0.000000000     0.000000000  0.155829989  0.000000000
     0.000000000  0.000000000 24.700000000     0.000000000  0.000000000  0.040485830

  length of vectors
     7.410000000  7.410001522 24.700000000     0.155830021  0.155829989  0.040485830


 FORCES acting on ions
    electron-ion (+dipol)            ewald-force                    non-local-force                 convergence-correction
 -----------------------------------------------------------------------------------------------
   0.767E-01 0.536E-01 0.291E+04   -.962E-01 -.585E-01 -.291E+04   0.485E-02 0.594E-02 -.120E+01   0.920E-03 -.943E-03 0.108E-02
   -.563E-01 -.441E-01 0.291E+04   0.584E-01 0.607E-01 -.291E+04   -.111E-02 -.183E-02 -.123E+01   -.122E-02 -.575E-04 0.902E-03
   -.223E-01 0.126E-01 0.291E+04   0.391E-01 -.183E-01 -.291E+04   -.525E-02 0.456E-02 -.121E+01   0.302E-03 0.886E-03 0.186E-03
   0.644E-01 0.207E+00 0.291E+04   -.629E-01 -.198E+00 -.291E+04   -.245E-02 -.146E-01 -.122E+01   -.972E-03 0.322E-03 0.390E-03
   -.656E-01 0.110E-01 0.291E+04   0.812E-01 -.162E-01 -.291E+04   -.710E-02 0.171E-02 -.124E+01   0.621E-03 -.496E-03 0.112E-02
   -.190E-02 0.438E-01 0.291E+04   -.172E-01 -.501E-01 -.291E+04   0.838E-02 0.231E-02 -.124E+01   0.355E-03 0.128E-02 0.155E-03
   -.183E+00 -.138E+00 0.291E+04   0.170E+00 0.131E+00 -.291E+04   0.150E-01 0.749E-02 -.123E+01   -.890E-03 -.308E-03 0.666E-03
   -.732E-03 -.650E-01 0.291E+04   0.253E-02 0.795E-01 -.291E+04   -.299E-02 -.470E-04 -.122E+01   0.202E-02 -.615E-03 0.566E-03
   0.182E+00 -.688E-01 0.291E+04   -.171E+00 0.635E-01 -.291E+04   -.145E-01 0.678E-02 -.123E+01   -.113E-02 -.627E-04 0.677E-03
   0.418E+00 -.633E-01 0.112E+04   -.420E+00 0.790E-01 -.112E+04   -.505E-02 -.343E-02 -.369E+00   0.191E-02 -.122E-02 -.596E-03
   0.124E+01 -.149E+01 0.112E+04   -.128E+01 0.152E+01 -.112E+04   -.568E-03 0.541E-02 -.407E+00   -.303E-03 0.949E-04 -.498E-03
   -.143E+01 -.184E+01 0.112E+04   0.146E+01 0.187E+01 -.112E+04   0.180E-02 0.416E-02 -.412E+00   -.161E-02 -.809E-03 0.220E-03
   0.126E+00 0.167E+01 0.112E+04   -.140E+00 -.170E+01 -.112E+04   0.477E-02 0.784E-03 -.404E+00   0.129E-02 -.313E-03 -.132E-03
   -.637E+00 0.143E+00 0.112E+04   0.638E+00 -.147E+00 -.112E+04   0.468E-03 0.267E-02 -.458E+00   -.108E-02 0.154E-03 0.115E-03
   0.672E+00 0.172E+01 0.112E+04   -.668E+00 -.175E+01 -.112E+04   -.485E-02 -.579E-02 -.403E+00   -.207E-03 0.127E-02 -.182E-02
   0.174E+00 0.203E+00 0.112E+04   -.182E+00 -.200E+00 -.112E+04   0.347E-02 -.264E-03 -.430E+00   -.172E-03 0.690E-03 -.231E-03
   -.205E+01 -.116E+01 0.112E+04   0.206E+01 0.118E+01 -.112E+04   0.103E-01 -.128E-02 -.407E+00   0.496E-03 -.608E-03 0.170E-02
   0.206E+01 -.364E+00 0.112E+04   -.208E+01 0.392E+00 -.112E+04   -.153E-01 -.495E-02 -.403E+00   -.326E-03 0.740E-03 -.757E-03
   -.374E+01 -.230E+01 -.669E+03   0.359E+01 0.221E+01 0.669E+03   0.148E+00 0.943E-01 0.138E+00   0.220E-02 -.103E-02 -.320E-02
   -.357E+01 -.222E+01 -.664E+03   0.357E+01 0.224E+01 0.664E+03   -.174E-02 -.152E-01 0.436E+00   -.132E-02 -.170E-03 -.187E-02
   0.710E+01 -.266E+01 -.677E+03   -.693E+01 0.256E+01 0.677E+03   -.175E+00 0.950E-01 0.135E+00   -.858E-03 -.255E-02 -.167E-02
   0.223E+01 -.298E+01 -.663E+03   -.223E+01 0.298E+01 0.663E+03   -.227E-02 0.306E-02 0.382E+00   0.200E-02 0.207E-02 -.307E-02
   -.283E+01 -.269E+00 -.657E+03   0.284E+01 0.248E+00 0.656E+03   -.254E-01 0.193E-01 0.455E+00   0.110E-02 0.219E-02 -.113E-02
   0.514E+00 0.259E+01 -.664E+03   -.524E+00 -.261E+01 0.664E+03   0.176E-01 0.196E-01 0.473E+00   -.312E-02 0.189E-02 -.171E-02
   0.105E+01 0.204E-01 -.663E+03   -.104E+01 -.230E-01 0.663E+03   -.137E-01 0.365E-02 0.384E+00   0.165E-02 -.119E-02 -.392E-03
   0.174E+01 0.564E+01 -.674E+03   -.175E+01 -.547E+01 0.674E+03   0.252E-02 -.168E+00 0.181E+00   -.123E-02 -.248E-02 -.402E-03
   -.269E+01 0.317E+01 -.660E+03   0.268E+01 -.317E+01 0.660E+03   0.156E-01 0.345E-02 0.376E+00   -.419E-03 0.109E-02 -.244E-02
   0.292E+02 -.194E+01 -.240E+04   -.291E+02 0.210E+01 0.240E+04   -.505E-01 -.152E+00 0.228E+01   -.792E-03 -.391E-02 0.310E-03
   -.489E+02 0.483E+01 -.245E+04   0.491E+02 -.484E+01 0.245E+04   -.251E+00 0.367E-02 0.167E+01   0.894E-03 -.208E-03 -.761E-03
   0.220E+02 -.373E+01 -.251E+04   -.221E+02 0.370E+01 0.251E+04   0.188E+00 0.383E-01 0.150E+01   -.111E-03 -.247E-02 0.561E-04
   -.970E+01 -.375E+02 -.245E+04   0.978E+01 0.377E+02 0.245E+04   -.794E-01 -.102E+00 0.171E+01   0.311E-02 0.190E-02 -.545E-03
   -.177E+02 0.666E+00 -.253E+04   0.177E+02 -.655E+00 0.253E+04   0.169E-02 -.112E-01 0.114E+01   -.114E-02 0.189E-02 -.724E-03
   0.269E+02 -.209E+02 -.250E+04   -.271E+02 0.211E+02 0.250E+04   0.103E+00 -.186E+00 0.154E+01   -.194E-02 0.301E-03 0.814E-03
   -.361E+01 -.177E+01 -.253E+04   0.360E+01 0.178E+01 0.253E+04   0.280E-02 -.984E-02 0.119E+01   0.237E-02 0.207E-02 -.637E-03
   0.189E+02 0.160E+02 -.248E+04   -.190E+02 -.162E+02 0.248E+04   0.474E-01 0.122E+00 0.107E+01   0.920E-03 0.490E-03 -.127E-02
   -.157E+02 0.405E+02 -.248E+04   0.158E+02 -.407E+02 0.248E+04   -.795E-01 0.192E+00 0.123E+01   -.325E-02 0.400E-03 -.837E-03
   -.189E+02 -.129E+03 -.123E+04   0.184E+02 0.130E+03 0.123E+04   0.428E+00 -.710E+00 0.282E+00   0.113E-03 0.125E-04 -.110E-03
   -.942E+02 0.286E+00 -.124E+04   0.100E+03 0.119E+01 0.124E+04   -.593E+01 -.149E+01 -.275E+01   -.535E-04 -.139E-03 0.676E-04
   -.301E+02 0.819E+02 -.117E+04   0.299E+02 -.818E+02 0.117E+04   0.219E+00 -.631E-01 -.151E+00   -.377E-04 -.192E-04 -.677E-03
   0.178E+03 0.979E+01 -.192E+04   -.202E+03 0.201E+02 0.191E+04   0.242E+02 -.299E+02 0.905E+01   -.291E-03 -.770E-03 0.419E-03
   -.606E+02 0.123E+02 -.297E+03   0.648E+02 -.133E+02 0.294E+03   -.424E+01 0.978E+00 0.323E+01   0.791E-05 -.223E-04 0.926E-04
   0.435E+02 -.307E+02 -.315E+03   -.478E+02 0.319E+02 0.318E+03   0.427E+01 -.119E+01 -.324E+01   0.321E-04 -.126E-04 -.148E-03
   0.179E+01 -.476E+02 -.292E+03   -.226E+01 0.507E+02 0.287E+03   0.476E+00 -.306E+01 0.440E+01   0.765E-04 0.508E-04 0.137E-03
   -.504E+02 -.294E+02 -.310E+03   0.551E+02 0.309E+02 0.312E+03   -.466E+01 -.152E+01 -.249E+01   -.604E-06 0.575E-05 -.152E-03
   0.290E+02 0.932E+02 -.326E+03   -.303E+02 -.101E+03 0.326E+03   0.132E+01 0.788E+01 0.262E+00   -.792E-04 -.966E-04 -.556E-04
   -.627E+01 0.648E+02 -.277E+03   0.643E+01 -.701E+02 0.276E+03   -.149E+00 0.525E+01 0.152E+01   -.291E-04 0.357E-04 -.144E-03
   0.431E+02 0.344E+01 -.293E+03   -.474E+02 -.270E+01 0.296E+03   0.431E+01 -.764E+00 -.333E+01   0.327E-04 -.122E-04 -.253E-03
   -.518E+02 0.515E+00 -.287E+03   0.564E+02 0.396E+00 0.289E+03   -.459E+01 -.926E+00 -.290E+01   -.411E-04 -.194E-05 -.237E-03
 -----------------------------------------------------------------------------------------------
   -.156E+02 0.256E+02 -.513E+01   -.156E-12 -.228E-14 0.136E-11   0.155E+02 -.255E+02 0.547E+01   -.203E-03 -.683E-03 -.168E-01
 
 
 POSITION                                       TOTAL-FORCE (eV/Angst)
 -----------------------------------------------------------------------------------
      1.23500      0.71303      0.00000        -0.013033     -0.001535      0.474512
      3.70500      0.71303      0.00000         0.000456      0.013043      0.466785
      6.17500      0.71303      0.00000         0.012544     -0.001875      0.473605
     -0.00000      2.85211      0.00000        -0.001307     -0.007027      0.478441
      2.47000      2.85211      0.00000         0.009726     -0.005593      0.461897
      4.94000      2.85211      0.00000        -0.009730     -0.004321      0.461000
      1.23500      4.99118      0.00000         0.001219     -0.001352      0.480975
      3.70500      4.99118      0.00000         0.001450      0.012035      0.472053
     -1.23500      4.99118      0.00000        -0.003789     -0.000556      0.482436
      0.00000      0.00000      2.01675        -0.004767      0.009019     -0.486451
      2.47000      0.00000      2.01675        -0.033718      0.026606     -0.447813
      4.94000      0.00000      2.01675         0.027309      0.031261     -0.456762
      1.23500      2.13908      2.01675        -0.006908     -0.031281     -0.457383
      3.70500      2.13908      2.01675         0.001320     -0.002893     -0.531743
      6.17500      2.13908      2.01675         0.000122     -0.033860     -0.454049
      0.00000      4.27816      2.01675        -0.003359      0.001145     -0.510448
      2.47000      4.27816      2.01675         0.029551      0.024062     -0.452732
      4.94000      4.27816      2.01675        -0.033429      0.021179     -0.448699
      1.21626      0.71586      4.07131         0.000956     -0.001822      0.002053
      3.70118      0.72360      4.05309        -0.001706      0.001425     -0.001073
      6.18150      0.71463      4.07075        -0.006893     -0.001401      0.000446
     -0.00585      2.86158      4.05333        -0.002858      0.003393     -0.003651
      2.46941      2.85992      4.04722        -0.006063     -0.001685      0.002062
      4.93306      2.85872      4.05201         0.004346     -0.000708      0.001888
      1.22859      5.00150      4.04917        -0.000693     -0.002058     -0.000671
      3.70124      5.01878      4.07235        -0.001094     -0.006631      0.002894
     -1.23857      4.99954      4.05082         0.003518      0.001512     -0.005115
     -0.00673      0.02245      6.08786         0.002058      0.000608      0.000135
      2.48024      0.00641      5.98060         0.003333     -0.002103      0.001031
      4.92056      0.00529      5.98718         0.001038      0.000887     -0.002496
      1.23723      2.17087      5.97892         0.004553      0.001265     -0.003330
      3.70003      2.15135      5.99589        -0.000944     -0.001183      0.001360
      6.16126      2.16269      5.98601         0.003980      0.000631     -0.000121
     -0.00554      4.28988      5.99649        -0.003886      0.000789      0.001972
      2.45766      4.27210      5.97453         0.001106     -0.001385     -0.002964
      4.93821      4.26951      5.97951        -0.000838      0.002420      0.000865
      1.15633      1.63486      9.36526        -0.002658     -0.009058      0.006164
      1.18949      0.16598      9.01913         0.002210     -0.009027      0.010414
     -2.44337      5.66109     10.21758         0.002283     -0.004682      0.000030
      3.67283      6.29804      8.26626        -0.002854     -0.008182     -0.003034
     -1.65375      6.38137      8.34463         0.005252     -0.001202     -0.003754
      0.30353      1.86251     10.02133        -0.000660     -0.005039      0.000610
      1.06212      2.24623      8.44960        -0.001910      0.002281     -0.006032
      2.09040      1.92438      9.86688         0.001311     -0.000157     -0.000684
      3.53896      5.32334      8.24811         0.003133      0.001789      0.004042
     -2.42392      4.60719      9.89719         0.006522      0.001851     -0.001064
     -3.30865      5.81876     10.87889         0.009076     -0.006362     -0.004053
     -1.52497      5.85519     10.78987         0.004725     -0.004222     -0.003548
 -----------------------------------------------------------------------------------
    total drift:                               -0.038654      0.087110      0.321047


--------------------------------------------------------------------------------------------------------



  FREE ENERGIE OF THE ION-ELECTRON SYSTEM (eV)
  ---------------------------------------------------
  free  energy   TOTEN  =      -313.37840514 eV

  energy  without entropy=     -313.36841926  energy(sigma->0) =     -313.37590867
 


--------------------------------------------------------------------------------------------------------


    POTLOK:  cpu time    0.40: real time    0.40


--------------------------------------------------------------------------------------------------------


 stress matrix after NEB project (eV)
    -20.17784      0.09722      0.31269
      0.09722    -19.88486     -0.32873
      0.31269     -0.32873    -11.32376
  FORCES: max atom, RMS     0.013958    0.005009
  FORCE total and by dimension    0.034701    0.010414
  Stress total and by dimension   30.515753   20.177842


--------------------------------------------------------------------------------------------------------


  
 reached required accuracy - stopping structural energy minimisation
     LOOP+:  cpu time 1755.26: real time 1755.50
    4ORBIT:  cpu time    0.00: real time    0.00

 total amount of memory used by VASP on root node   182353. kBytes
========================================================================

   base      :      30000. kBytes
   nonlr-proj:       9789. kBytes
   fftplans  :       6203. kBytes
   grid      :      28885. kBytes
   one-center:       1492. kBytes
   wavefun   :     105984. kBytes
 
  
  
 General timing and accounting informations for this job:
 ========================================================
  
                  Total CPU time used (sec):     1762.064
                            User time (sec):     1760.744
                          System time (sec):        1.320
                         Elapsed time (sec):     1763.267
  
                   Maximum memory used (kb):      226504.
                   Average memory used (kb):           0.
  
                          Minor page faults:       260806
                          Major page faults:            0
  
                Voluntary context switches:          458
