 vasp.5.3.5 31Mar14 (build Jan 31 2018 16:04:57) complex                        
  
 executed on             LinuxIFC date 2018.12.29  18:07:23
 running on    8 total cores
 distrk:  each k-point on    8 cores,    1 groups
 distr:  one band on NCORES_PER_BAND=   1 cores,    8 groups


--------------------------------------------------------------------------------------------------------


 INCAR:
 POTCAR:    PAW_PBE Co 02Aug2007                  
 POTCAR:    PAW_PBE C 08Apr2002                   
 POTCAR:    PAW_PBE O 08Apr2002                   
 POTCAR:    PAW_PBE H 15Jun2001                   

 ----------------------------------------------------------------------------- 
|                                                                             |
|           W    W    AA    RRRRR   N    N  II  N    N   GGGG   !!!           |
|           W    W   A  A   R    R  NN   N  II  NN   N  G    G  !!!           |
|           W    W  A    A  R    R  N N  N  II  N N  N  G       !!!           |
|           W WW W  AAAAAA  RRRRR   N  N N  II  N  N N  G  GGG   !            |
|           WW  WW  A    A  R   R   N   NN  II  N   NN  G    G                |
|           W    W  A    A  R    R  N    N  II  N    N   GGGG   !!!           |
|                                                                             |
|      For optimal performance we recommend to set                            |
|        NCORE= 4 - approx SQRT( number of cores)                             |
|      NCORE specifies how many cores store one orbital (NPAR=cpu/NCORE).     |
|      This setting can  greatly improve the performance of VASP for DFT.     |
|      The default, NPAR=number of cores might be grossly inefficient         |
|      on modern multi-core architectures or massively parallel machines.     |
|      Do your own testing !!!!                                               |
|      Unfortunately you need to use the default for GW and RPA calculations. |
|      (for HF NCORE is supported but not extensively tested yet)             |
|                                                                             |
 ----------------------------------------------------------------------------- 

 POTCAR:    PAW_PBE Co 02Aug2007                  
   VRHFIN =Co: d8 s1                                                            
   LEXCH  = PE                                                                  
   EATOM  =   813.3670 eV,   59.7808 Ry                                         
                                                                                
   TITEL  = PAW_PBE Co 02Aug2007                                                
   LULTRA =        F    use ultrasoft PP ?                                      
   IUNSCR =        1    unscreen: 0-lin 1-nonlin 2-no                           
   RPACOR =    2.000    partial core radius                                     
   POMASS =   58.933; ZVAL   =    9.000    mass and valenz                      
   RCORE  =    2.300    outmost cutoff radius                                   
   RWIGS  =    2.460; RWIGS  =    1.302    wigner-seitz radius (au A)           
   ENMAX  =  267.968; ENMIN  =  200.976 eV                                      
   RCLOC  =    1.203    cutoff for local pot                                    
   LCOR   =        T    correct aug charges                                     
   LPAW   =        T    paw PP                                                  
   EAUG   =  477.818                                                            
   DEXC   =    0.000                                                            
   RMAX   =    2.360    core radius for proj-oper                               
   RAUG   =    1.300    factor for augmentation sphere                          
   RDEP   =    2.393    radius for radial grids                                 
   RDEPT  =    1.864    core radius for aug-charge                              
                                                                                
   Atomic configuration                                                         
    9 entries                                                                   
     n  l   j            E        occ.                                          
     1  0  0.50     -7587.6674   2.0000                                         
     2  0  0.50      -893.6084   2.0000                                         
     2  1  1.50      -764.5805   6.0000                                         
     3  0  0.50       -97.5973   2.0000                                         
     3  1  1.50       -60.9648   6.0000                                         
     3  2  2.50        -4.2382   8.0000                                         
     4  0  0.50        -4.3746   1.0000                                         
     4  1  1.50        -4.0817   0.0000                                         
     4  3  2.50        -1.3606   0.0000                                         
   Description                                                                  
     l       E           TYP  RCUT    TYP  RCUT                                 
     2     -4.2382362     23  2.300                                             
     2     -5.5988188     23  2.300                                             
     0     -4.3745797     23  2.300                                             
     0      5.7660125     23  2.300                                             
     1     -2.7211652     23  2.300                                             
     1     16.9860234     23  2.300                                             
  local pseudopotential read in
  partial core-charges read in
  partial kinetic energy density read in
  atomic valenz-charges read in
  non local Contribution for L=           2  read in
    real space projection operators read in
  non local Contribution for L=           2  read in
    real space projection operators read in
  non local Contribution for L=           0  read in
    real space projection operators read in
  non local Contribution for L=           0  read in
    real space projection operators read in
  non local Contribution for L=           1  read in
    real space projection operators read in
  non local Contribution for L=           1  read in
    real space projection operators read in
    PAW grid and wavefunctions read in
 
   number of l-projection  operators is LMAX  =           6
   number of lm-projection operators is LMMAX =          18
 
 POTCAR:    PAW_PBE C 08Apr2002                   
   VRHFIN =C: s2p2                                                              
   LEXCH  = PE                                                                  
   EATOM  =   147.1560 eV,   10.8157 Ry                                         
                                                                                
   TITEL  = PAW_PBE C 08Apr2002                                                 
   LULTRA =        F    use ultrasoft PP ?                                      
   IUNSCR =        1    unscreen: 0-lin 1-nonlin 2-no                           
   RPACOR =    1.200    partial core radius                                     
   POMASS =   12.011; ZVAL   =    4.000    mass and valenz                      
   RCORE  =    1.500    outmost cutoff radius                                   
   RWIGS  =    1.630; RWIGS  =    0.863    wigner-seitz radius (au A)           
   ENMAX  =  400.000; ENMIN  =  300.000 eV                                      
   ICORE  =        2    local potential                                         
   LCOR   =        T    correct aug charges                                     
   LPAW   =        T    paw PP                                                  
   EAUG   =  644.873                                                            
   DEXC   =    0.000                                                            
   RMAX   =    1.529    core radius for proj-oper                               
   RAUG   =    1.300    factor for augmentation sphere                          
   RDEP   =    1.501    radius for radial grids                                 
   RDEPT  =    1.300    core radius for aug-charge                              
                                                                                
   Atomic configuration                                                         
    4 entries                                                                   
     n  l   j            E        occ.                                          
     1  0  0.50      -273.3789   2.0000                                         
     2  0  0.50       -13.7508   2.0000                                         
     2  1  0.50        -5.2854   2.0000                                         
     3  2  1.50        -5.4423   0.0000                                         
   Description                                                                  
     l       E           TYP  RCUT    TYP  RCUT                                 
     0    -13.7508458     23  1.200                                             
     0     -8.2022199     23  1.200                                             
     1     -5.2854383     23  1.500                                             
     1     34.0145650     23  1.500                                             
     2     -5.4423304      7  1.500                                             
  local pseudopotential read in
  partial core-charges read in
  partial kinetic energy density read in
  atomic valenz-charges read in
  non local Contribution for L=           0  read in
    real space projection operators read in
  non local Contribution for L=           0  read in
    real space projection operators read in
  non local Contribution for L=           1  read in
    real space projection operators read in
  non local Contribution for L=           1  read in
    real space projection operators read in
    PAW grid and wavefunctions read in
 
   number of l-projection  operators is LMAX  =           4
   number of lm-projection operators is LMMAX =           8
 
 POTCAR:    PAW_PBE O 08Apr2002                   
   VRHFIN =O: s2p4                                                              
   LEXCH  = PE                                                                  
   EATOM  =   432.3788 eV,   31.7789 Ry                                         
                                                                                
   TITEL  = PAW_PBE O 08Apr2002                                                 
   LULTRA =        F    use ultrasoft PP ?                                      
   IUNSCR =        1    unscreen: 0-lin 1-nonlin 2-no                           
   RPACOR =    1.200    partial core radius                                     
   POMASS =   16.000; ZVAL   =    6.000    mass and valenz                      
   RCORE  =    1.520    outmost cutoff radius                                   
   RWIGS  =    1.550; RWIGS  =    0.820    wigner-seitz radius (au A)           
   ENMAX  =  400.000; ENMIN  =  300.000 eV                                      
   ICORE  =        2    local potential                                         
   LCOR   =        T    correct aug charges                                     
   LPAW   =        T    paw PP                                                  
   EAUG   =  605.392                                                            
   DEXC   =    0.000                                                            
   RMAX   =    1.553    core radius for proj-oper                               
   RAUG   =    1.300    factor for augmentation sphere                          
   RDEP   =    1.550    radius for radial grids                                 
   RDEPT  =    1.329    core radius for aug-charge                              
                                                                                
   Atomic configuration                                                         
    4 entries                                                                   
     n  l   j            E        occ.                                          
     1  0  0.50      -514.6923   2.0000                                         
     2  0  0.50       -23.9615   2.0000                                         
     2  1  0.50        -9.0305   4.0000                                         
     3  2  1.50        -9.5241   0.0000                                         
   Description                                                                  
     l       E           TYP  RCUT    TYP  RCUT                                 
     0    -23.9615318     23  1.200                                             
     0     -9.5240782     23  1.200                                             
     1     -9.0304911     23  1.520                                             
     1      8.1634956     23  1.520                                             
     2     -9.5240782      7  1.500                                             
  local pseudopotential read in
  partial core-charges read in
  partial kinetic energy density read in
  kinetic energy density of atom read in
  atomic valenz-charges read in
  non local Contribution for L=           0  read in
    real space projection operators read in
  non local Contribution for L=           0  read in
    real space projection operators read in
  non local Contribution for L=           1  read in
    real space projection operators read in
  non local Contribution for L=           1  read in
    real space projection operators read in
    PAW grid and wavefunctions read in
 
   number of l-projection  operators is LMAX  =           4
   number of lm-projection operators is LMMAX =           8
 
 POTCAR:    PAW_PBE H 15Jun2001                   
   VRHFIN =H: ultrasoft test                                                    
   LEXCH  = PE                                                                  
   EATOM  =    12.4884 eV,    0.9179 Ry                                         
                                                                                
   TITEL  = PAW_PBE H 15Jun2001                                                 
   LULTRA =        F    use ultrasoft PP ?                                      
   IUNSCR =        0    unscreen: 0-lin 1-nonlin 2-no                           
   RPACOR =    0.000    partial core radius                                     
   POMASS =    1.000; ZVAL   =    1.000    mass and valenz                      
   RCORE  =    1.100    outmost cutoff radius                                   
   RWIGS  =    0.700; RWIGS  =    0.370    wigner-seitz radius (au A)           
   ENMAX  =  250.000; ENMIN  =  200.000 eV                                      
   RCLOC  =    0.701    cutoff for local pot                                    
   LCOR   =        T    correct aug charges                                     
   LPAW   =        T    paw PP                                                  
   EAUG   =  400.000                                                            
   RMAX   =    1.123    core radius for proj-oper                               
   RAUG   =    1.200    factor for augmentation sphere                          
   RDEP   =    1.112    radius for radial grids                                 
   RDEPT  =    0.926    core radius for aug-charge                              
                                                                                
   Atomic configuration                                                         
    2 entries                                                                   
     n  l   j            E        occ.                                          
     1  0  0.50        -6.4927   1.0000                                         
     2  1  0.50        -3.4015   0.0000                                         
   Description                                                                  
     l       E           TYP  RCUT    TYP  RCUT                                 
     0     -6.4927494     23  1.100                                             
     0      6.8029130     23  1.100                                             
     1     -4.0817478     23  1.100                                             
  local pseudopotential read in
  atomic valenz-charges read in
  non local Contribution for L=           0  read in
    real space projection operators read in
  non local Contribution for L=           0  read in
    real space projection operators read in
  non local Contribution for L=           1  read in
    real space projection operators read in
    PAW grid and wavefunctions read in
 
   number of l-projection  operators is LMAX  =           3
   number of lm-projection operators is LMMAX =           5
 
 Optimization of the real space projectors (new method)

 maximal supplied QI-value         = 16.25
 optimisation between [QCUT,QGAM] = [ 10.24, 20.48] = [ 29.35,117.42] Ry 
 Optimized for a Real-space Cutoff    1.34 Angstroem

   l    n(q)    QCUT    max X(q) W(low)/X(q) W(high)/X(q)  e(spline) 
   2      7    10.239    65.824    0.41E-03    0.10E-02    0.11E-06
   2      7    10.239    61.429    0.41E-03    0.10E-02    0.11E-06
   0      8    10.239    56.174    0.42E-03    0.17E-03    0.96E-07
   0      8    10.239    31.263    0.38E-03    0.16E-03    0.87E-07
   1      8    10.239    19.828    0.20E-03    0.56E-03    0.13E-06
   1      8    10.239    15.139    0.15E-03    0.46E-03    0.11E-06
 Optimization of the real space projectors (new method)

 maximal supplied QI-value         = 25.13
 optimisation between [QCUT,QGAM] = [ 10.05, 20.36] = [ 28.30,116.06] Ry 
 Optimized for a Real-space Cutoff    1.30 Angstroem

   l    n(q)    QCUT    max X(q) W(low)/X(q) W(high)/X(q)  e(spline) 
   0      8    10.053   115.676    0.49E-03    0.72E-03    0.18E-06
   0      8    10.053    87.132    0.49E-03    0.71E-03    0.18E-06
   1      7    10.053     4.429    0.32E-03    0.31E-03    0.18E-06
   1      7    10.053     2.733    0.23E-03    0.19E-03    0.20E-06
 Optimization of the real space projectors (new method)

 maximal supplied QI-value         = 24.76
 optimisation between [QCUT,QGAM] = [ 10.15, 20.30] = [ 28.85,115.39] Ry 
 Optimized for a Real-space Cutoff    1.38 Angstroem

   l    n(q)    QCUT    max X(q) W(low)/X(q) W(high)/X(q)  e(spline) 
   0      8    10.150    20.381    0.22E-03    0.32E-03    0.29E-06
   0      8    10.150    15.268    0.23E-03    0.35E-03    0.30E-06
   1      8    10.150     5.964    0.46E-03    0.53E-03    0.21E-06
   1      8    10.150     5.382    0.38E-03    0.45E-03    0.19E-06
 Optimization of the real space projectors (new method)

 maximal supplied QI-value         = 34.20
 optimisation between [QCUT,QGAM] = [  9.92, 20.18] = [ 27.55,114.04] Ry 
 Optimized for a Real-space Cutoff    1.26 Angstroem

   l    n(q)    QCUT    max X(q) W(low)/X(q) W(high)/X(q)  e(spline) 
   0      8     9.919    19.460    0.50E-03    0.23E-03    0.29E-06
   0      8     9.919    12.209    0.48E-03    0.23E-03    0.28E-06
   1      7     9.919     4.655    0.17E-03    0.75E-03    0.30E-06
  PAW_PBE Co 02Aug2007                  :
 energy of atom  1       EATOM= -813.3670
 kinetic energy error for atom=    0.0093 (will be added to EATOM!!)
  PAW_PBE C 08Apr2002                   :
 energy of atom  2       EATOM= -147.1560
 kinetic energy error for atom=    0.0288 (will be added to EATOM!!)
  PAW_PBE O 08Apr2002                   :
 energy of atom  3       EATOM= -432.3788
 kinetic energy error for atom=    0.1156 (will be added to EATOM!!)
  PAW_PBE H 15Jun2001                   :
 energy of atom  4       EATOM=  -12.4884
 kinetic energy error for atom=    0.0098 (will be added to EATOM!!)
 
 
 POSCAR: Co C O H                                
  positions in direct lattice
  velocities in cartesian coordinates
 exchange correlation table for  LEXCH =        8
   RHO(1)=    0.500       N(1)  =     2000
   RHO(2)=  100.500       N(2)  =     4000

 VTST: version 3.1, (03/28/14)

 CHAIN: initializing optimizer
 
 OPT: Using Conjugate-Gradient optimizer
 OPT: CG, Init
 OPT: CG, FDSTEP      0.005000
 OPT: CG, MAXMOVE      0.200000
 
 CHAIN: Read ICHAIN            2
 
 POSCAR: Co C O H                                
  positions in direct lattice
  velocities in cartesian coordinates
 CHAIN: Running the Dimer method

 Dimer: -----------------
 Dimer: Input Parameters
 Dimer:   Seed      0
 Dimer: RotMax      1
 Dimer:     dR      0.005000
 Dimer:  FNMax      1.000000
 Dimer:  FNMin      0.010000
 Dimer: -----------------
 


--------------------------------------------------------------------------------------------------------


 ion  position               nearest neighbor table
   1  0.500  0.500  0.000-  16 2.46  14 2.46   4 2.46   2 2.46  13 2.47   9 2.47  17 2.49
   2  0.667  0.750  0.000-   9 2.46  11 2.46   1 2.46   3 2.46  10 2.47  14 2.47  18 2.49
   3  0.500  0.000  0.000-  16 2.46  14 2.46   4 2.46   2 2.46  15 2.47  11 2.47  19 2.49
   4  0.667  0.250  0.000-   9 2.46  11 2.46   1 2.46   3 2.46  12 2.47  16 2.47  20 2.49
   5  0.000  0.500  0.000-  12 2.46  10 2.46   8 2.46   6 2.46   9 2.47  13 2.47  21 2.50
   6  0.167  0.750  0.000-  13 2.46  15 2.46   5 2.46   7 2.46  14 2.47  10 2.47  22 2.49
   7  0.000  0.000  0.000-  12 2.46  10 2.46   8 2.46   6 2.46  11 2.47  15 2.47  23 2.47
   8  0.167  0.250  0.000-  13 2.46  15 2.46   5 2.46   7 2.46  16 2.47  12 2.47  24 2.48
   9  0.750  0.500  0.056-  25 2.38   4 2.46   2 2.46  12 2.46  10 2.46   5 2.47   1 2.47  17 2.48
                            18 2.48  20 2.48  21 2.50
  10  0.917  0.750  0.056-  26 2.39   5 2.46   7 2.46   9 2.46  11 2.46  22 2.47   2 2.47   6 2.47
                            23 2.47  21 2.48  18 2.50
  11  0.750  0.000  0.056-  27 2.38  19 2.46   4 2.46   2 2.46  12 2.46  10 2.46   7 2.47   3 2.47
                            20 2.47  18 2.48  23 2.49
  12  0.917  0.250  0.056-  28 2.38   5 2.46   7 2.46   9 2.46  11 2.46  23 2.47   4 2.47   8 2.47
                            21 2.48  24 2.48  20 2.49
  13  0.250  0.500  0.056-  29 2.37   8 2.46   6 2.46  16 2.46  14 2.46   1 2.47   5 2.47  21 2.48
                            24 2.48  17 2.49  22 2.49
  14  0.417  0.750  0.056-  30 2.39   1 2.46   3 2.46  13 2.46  15 2.46  18 2.47   6 2.47   2 2.47
                            17 2.48  19 2.48  22 2.50
  15  0.250  0.000  0.056-  31 2.44  23 2.45  24 2.45   8 2.46   6 2.46  16 2.46  14 2.46  22 2.46
                             3 2.47   7 2.47  19 2.51
  16  0.417  0.250  0.056-  32 2.46   1 2.46   3 2.46  13 2.46  15 2.46  17 2.46   8 2.47   4 2.47
                            20 2.47  24 2.48  19 2.48
  17  0.501  0.499  0.112-  29 2.40  30 2.43  32 2.43  20 2.45  18 2.46  16 2.46  25 2.47   9 2.48
                            14 2.48  13 2.49   1 2.49
  18  0.665  0.750  0.112-  26 2.39  27 2.42  25 2.43  19 2.44  17 2.46  14 2.47  11 2.48   9 2.48
                            30 2.48   2 2.49  10 2.50
  19  0.504  0.000  0.112-  40 1.92  20 2.43  18 2.44  27 2.44  11 2.46  30 2.47  16 2.48  31 2.48
                            14 2.48   3 2.49  32 2.50  15 2.51
  20  0.665  0.250  0.112-  28 2.39  27 2.43  19 2.43  25 2.43  17 2.45  16 2.47  11 2.47   9 2.48
                            12 2.49   4 2.49  32 2.50
  21  0.002  0.500  0.113-  25 2.37  29 2.42  28 2.43  26 2.43  22 2.46  24 2.47  13 2.48  12 2.48
                            10 2.48   9 2.50   5 2.50
  22  0.165  0.752  0.112-  30 2.37  31 2.40  23 2.43  29 2.43  26 2.45  21 2.46  15 2.46  10 2.47
                            13 2.49   6 2.49  14 2.50
  23  0.003  0.000  0.111-  27 2.39  31 2.42  22 2.43  24 2.43  28 2.43  26 2.44  15 2.45  12 2.47
                            10 2.47   7 2.47  11 2.49
  24  0.167  0.248  0.112-  32 2.40  29 2.42  23 2.43  31 2.44  15 2.45  21 2.47  28 2.47  16 2.48
                            12 2.48  13 2.48   8 2.48
  25  0.757  0.500  0.163-  21 2.37   9 2.38  26 2.41  28 2.41  18 2.43  20 2.43  17 2.47
  26  0.911  0.751  0.163-  27 2.39  10 2.39  18 2.39  25 2.41  21 2.43  23 2.44  22 2.45
  27  0.757  0.999  0.163-  40 1.91  11 2.38  26 2.39  23 2.39  28 2.40  18 2.42  20 2.43  19 2.44

  28  0.911  0.249  0.163-  12 2.38  20 2.39  27 2.40  25 2.41  21 2.43  23 2.43  24 2.47
  29  0.253  0.499  0.162-  13 2.37  32 2.38  30 2.39  17 2.40  21 2.42  24 2.42  22 2.43
  30  0.407  0.747  0.163-  22 2.37  29 2.39  14 2.39  31 2.42  17 2.43  19 2.47  18 2.48  35 2.53

  31  0.249  0.996  0.165-  34 2.01  22 2.40  30 2.42  23 2.42  15 2.44  24 2.44  19 2.48  32 2.49

  32  0.409  0.255  0.166-  36 1.97  29 2.38  24 2.40  17 2.43  16 2.46  31 2.49  20 2.50  19 2.50

  33  0.215  0.067  0.284-  37 1.10  38 1.10  39 1.11  34 1.52
  34  0.352  0.003  0.246-  36 1.40  35 1.52  33 1.52  31 2.01
  35  0.422  0.844  0.271-  43 1.10  42 1.11  41 1.12  34 1.52  30 2.53
  36  0.466  0.126  0.239-  40 1.38  34 1.40  32 1.97
  37  0.122  0.973  0.286-  33 1.10
  38  0.167  0.183  0.265-  33 1.10
  39  0.256  0.092  0.330-  33 1.11
  40  0.558  0.067  0.192-  36 1.38  27 1.91  19 1.92
  41  0.519  0.794  0.243-  35 1.12
  42  0.481  0.871  0.315-  35 1.11
  43  0.333  0.748  0.279-  35 1.10
 
  LATTYP: Found a simple orthorhombic cell.
 ALAT       =     8.0199986100
 B/A-ratio  =     1.0673318421
 C/A-ratio  =     2.7718209293
  
  Lattice vectors:
  
 A1 = (   0.0000000000,  -8.0199986100,   0.0000000000)
 A2 = (  -8.5599998900,   0.0000000000,   0.0000000000)
 A3 = (   0.0000000000,   0.0000000000, -22.2300000000)


Analysis of symmetry for initial positions (statically):
=====================================================================
 Subroutine PRICEL returns:
 Original cell was already a primitive cell.
 

 Routine SETGRP: Setting up the symmetry group for a 
 simple orthorhombic supercell.


 Subroutine GETGRP returns: Found  1 space group operations
 (whereof  1 operations were pure point group operations)
 out of a pool of  8 trial point group operations.


The static configuration has the point symmetry C_1 .


Analysis of symmetry for dynamics (positions and initial velocities):
=====================================================================
 Subroutine PRICEL returns:
 Original cell was already a primitive cell.
 

 Routine SETGRP: Setting up the symmetry group for a 
 simple orthorhombic supercell.


 Subroutine GETGRP returns: Found  1 space group operations
 (whereof  1 operations were pure point group operations)
 out of a pool of  8 trial point group operations.


The dynamic configuration has the point symmetry C_1 .


Analysis of constrained symmetry for selective dynamics:
=====================================================================
 Subroutine PRICEL returns:
 Original cell was already a primitive cell.
 

 Routine SETGRP: Setting up the symmetry group for a 
 simple orthorhombic supercell.


 Subroutine GETGRP returns: Found  1 space group operations
 (whereof  1 operations were pure point group operations)
 out of a pool of  8 trial point group operations.


The constrained configuration has the point symmetry C_1 .


Analysis of magnetic symmetry:
=====================================================================
 Subroutine PRICEL returns:
 Original cell was already a primitive cell.
 

 Subroutine MAGSYM returns: Found  1 space group operations
 (whereof  1 operations were pure point group operations)
 out of a pool of  1 trial space group operations
 (whereof  1 operations were pure point group operations)
 and found also     1 'primitive' translations


The magnetic configuration has the point symmetry C_1 .
 
 
 KPOINTS:  Automatic mesh                         

Automatic generation of k-mesh.
Space group operators:
 irot       det(A)        alpha          n_x          n_y          n_z        tau_x        tau_y        tau_z
    1     1.000000     0.000000     1.000000     0.000000     0.000000     0.000000     0.000000     0.000000
 
 Subroutine IBZKPT returns following result:
 ===========================================
 
 Found      5 irreducible k-points:
 
 Following reciprocal coordinates:
            Coordinates               Weight
  0.000000  0.000000  0.000000      1.000000
  0.333333  0.000000  0.000000      2.000000
  0.000000  0.333333  0.000000      2.000000
  0.333333  0.333333  0.000000      2.000000
 -0.333333  0.333333  0.000000      2.000000
 
 Following cartesian coordinates:
            Coordinates               Weight
  0.000000  0.000000  0.000000      1.000000
  0.096184  0.000000  0.000000      2.000000
  0.000000  0.102660  0.000000      2.000000
  0.096184  0.102660  0.000000      2.000000
 -0.096184  0.102660  0.000000      2.000000
 


--------------------------------------------------------------------------------------------------------




 Dimension of arrays:
   k-points           NKPTS =      5   k-points in BZ     NKDIM =      5   number of bands    NBANDS=    216
   number of dos      NEDOS =    301   number of ions     NIONS =     43
   non local maximal  LDIM  =      6   non local SUM 2l+1 LMDIM =     18
   total plane-waves  NPLWV = 188160
   max r-space proj   IRMAX =   1408   max aug-charges    IRDMAX=   5061
   dimension x,y,z NGX =    42 NGY =   40 NGZ =  112
   dimension x,y,z NGXF=    84 NGYF=   80 NGZF=  224
   support grid    NGXF=    84 NGYF=   80 NGZF=  224
   ions per type =              32   3   1   7
 NGX,Y,Z   is equivalent  to a cutoff of   8.16,  8.29,  8.38 a.u.
 NGXF,Y,Z  is equivalent  to a cutoff of  16.31, 16.58, 16.75 a.u.


 I would recommend the setting:
   dimension x,y,z NGX =    42 NGY =   39 NGZ =  109
 SYSTEM =  unknown system                          
 POSCAR =  Co C O H                                

 Startparameter for this run:
   NWRITE =      2    write-flag & timer
   PREC   = normal    normal or accurate (medium, high low for compatibility)
   ISTART =      0    job   : 0-new  1-cont  2-samecut
   ICHARG =      2    charge: 1-file 2-atom 10-const
   ISPIN  =      2    spin polarized calculation?
   LNONCOLLINEAR =      F non collinear calculations
   LSORBIT =      F    spin-orbit coupling
   INIWAV =      1    electr: 0-lowe 1-rand  2-diag
   LASPH  =      F    aspherical Exc in radial PAW
   METAGGA=      F    non-selfconsistent MetaGGA calc.
   LSOL =      F    Solvation

 Electronic Relaxation 1
   ENCUT  =  400.0 eV  29.40 Ry    5.42 a.u.  13.96 13.08 36.25*2*pi/ulx,y,z
   ENINI  =  400.0     initial cutoff
   ENAUG  =  644.9 eV  augmentation charge cutoff
   NELM   =     60;   NELMIN=  2; NELMDL= -5     # of ELM steps 
   EDIFF  = 0.1E-05   stopping-criterion for ELM
   LREAL  =      T    real-space projection
   NLSPLINE    = F    spline interpolate recip. space projectors
   LCOMPAT=      F    compatible to vasp.4.4
   GGA_COMPAT  = T    GGA compatible to vasp.4.4-vasp.4.6
   LMAXPAW     = -100 max onsite density
   LMAXMIX     =    2 max onsite mixed and CHGCAR
   VOSKOWN=      0    Vosko Wilk Nusair interpolation
   ROPT   =   -0.00050  -0.00050  -0.00050  -0.00050
 Ionic relaxation
   EDIFFG = -.1E-01   stopping-criterion for IOM
   NSW    =    500    number of steps for IOM
   NBLOCK =      1;   KBLOCK =    500    inner block; outer block 
   IBRION =      3    ionic relax: 0-MD 1-quasi-New 2-CG
   NFREE  =      0    steps in history (QN), initial steepest desc. (CG)
   ISIF   =      2    stress and relaxation
   IWAVPR =     11    prediction:  0-non 1-charg 2-wave 3-comb
   ISYM   =      2    0-nonsym 1-usesym 2-fastsym
   LCORR  =      T    Harris-Foulkes like correction to forces

   POTIM  = 0.0000    time-step for ionic-motion
   TEIN   =    0.0    initial temperature
   TEBEG  =    0.0;   TEEND  =   0.0 temperature during run
   SMASS  =  -3.00    Nose mass-parameter (am)
   estimated Nose-frequenzy (Omega)   =  0.10E-29 period in steps =  0.00 mass=  -0.167E-26a.u.
   SCALEE = 1.0000    scale energy and forces
   NPACO  =    256;   APACO  = 16.0  distance and # of slots for P.C.
   PSTRESS=    0.0 pullay stress

  Mass of Ions in am
   POMASS =  58.93 12.01 16.00  1.00
  Ionic Valenz
   ZVAL   =   9.00  4.00  6.00  1.00
  Atomic Wigner-Seitz radii
   RWIGS  =  -1.00 -1.00 -1.00 -1.00
  virtual crystal weights 
   VCA    =   1.00  1.00  1.00  1.00
   NELECT =     313.0000    total number of electrons
   NUPDOWN=      -1.0000    fix difference up-down

 DOS related values:
   EMIN   =  10.00;   EMAX   =-10.00  energy-range for DOS
   EFERMI =   0.00
   ISMEAR =     2;   SIGMA  =   0.20  broadening in eV -4-tet -1-fermi 0-gaus

 Electronic relaxation 2 (details)
   IALGO  =     38    algorithm
   LDIAG  =      T    sub-space diagonalisation (order eigenvalues)
   LSUBROT=      F    optimize rotation matrix (better conditioning)
   TURBO    =      0    0=normal 1=particle mesh
   IRESTART =      0    0=no restart 2=restart with 2 vectors
   NREBOOT  =      0    no. of reboots
   NMIN     =      0    reboot dimension
   EREF     =   0.00    reference energy to select bands
   IMIX   =      4    mixing-type and parameters
     AMIX     =   0.40;   BMIX     =  1.00
     AMIX_MAG =   1.60;   BMIX_MAG =  1.00
     AMIN     =   0.10
     WC   =   100.;   INIMIX=   1;  MIXPRE=   1;  MAXMIX= -45

 Intra band minimization:
   WEIMIN = 0.0010     energy-eigenvalue tresh-hold
   EBREAK =  0.12E-08  absolut break condition
   DEPER  =   0.30     relativ break condition  

   TIME   =   0.40     timestep for ELM

  volume/ion in A,a.u.               =      35.49       239.51
  Fermi-wavevector in a.u.,A,eV,Ry     =   0.965444  1.824425 12.681748  0.932082
  Thomas-Fermi vector in A             =   2.095161
 
 Write flags
   LWAVE  =      F    write WAVECAR
   LCHARG =      F    write CHGCAR
   LVTOT  =      F    write LOCPOT, total local potential
   LVHAR  =      F    write LOCPOT, Hartree potential only
   LELF   =      F    write electronic localiz. function (ELF)
   LORBIT =      0    0 simple, 1 ext, 2 COOP (PROOUT)


 Dipole corrections
   LMONO  =      F    monopole corrections only (constant potential shift)
   LDIPOL =      F    correct potential (dipole corrections)
   IDIPOL =      3    1-x, 2-y, 3-z, 4-all directions 
   EPSILON=  1.0000000 bulk dielectric constant

 Exchange correlation treatment:
   GGA     =    PE    GGA type
   LEXCH   =     8    internal setting for exchange type
   VOSKOWN=      0    Vosko Wilk Nusair interpolation
   LHFCALC =     F    Hartree Fock is set to
   LHFONE  =     F    Hartree Fock one center treatment
   AEXX    =    0.0000 exact exchange contribution

 Linear response parameters
   LEPSILON=     F    determine dielectric tensor
   LRPA    =     F    only Hartree local field effects (RPA)
   LNABLA  =     F    use nabla operator in PAW spheres
   LVEL    =     F    velocity operator in full k-point grid
   LINTERFAST=   F  fast interpolation
   KINTER  =     0    interpolate to denser k-point grid
   CSHIFT  =0.1000    complex shift for real part using Kramers Kronig
   OMEGAMAX=  -1.0    maximum frequency
   DEG_THRESHOLD= 0.2000000E-02 threshold for treating states as degnerate
   RTIME   =    0.100 relaxation time in fs

 Orbital magnetization related:
   ORBITALMAG=     F  switch on orbital magnetization
   LCHIMAG   =     F  perturbation theory with respect to B field
   DQ        =  0.001000  dq finite difference perturbation B field



--------------------------------------------------------------------------------------------------------


 quickmin algorithm: (dynamic with friction)
   using selective dynamics as specified on POSCAR
 charge density and potential will be updated during run
 spin polarized calculation
 Variant of blocked Davidson
 Davidson routine will perform the subspace rotation
 perform sub-space diagonalisation
    after iterative eigenvector-optimisation
 modified Broyden-mixing scheme, WC =      100.0
 initial mixing is a Kerker type mixing with AMIX =  0.4000 and BMIX =      1.0000
 Hartree-type preconditioning will be used
 using additional bands           59
 real space projection scheme for non local part
 use partial core corrections
 calculate Harris-corrections to forces 
   (improved forces if not selfconsistent)
 use gradient corrections 
 use of overlap-Matrix (Vanderbilt PP)
 Methfessel and Paxton  Order N= 2 SIGMA  =   0.20


--------------------------------------------------------------------------------------------------------


  energy-cutoff  :      400.00
  volume of cell :     1526.12
      direct lattice vectors                 reciprocal lattice vectors
     8.559999890  0.000000000  0.000000000     0.116822431  0.000000000  0.000000000
     0.000000000  8.019998610  0.000000000     0.000000000  0.124688301  0.000000000
     0.000000000  0.000000000 22.230000000     0.000000000  0.000000000  0.044984256

  length of vectors
     8.559999890  8.019998610 22.230000000     0.116822431  0.124688301  0.044984256


 
 k-points in units of 2pi/SCALE and weight:  Automatic mesh                         
   0.00000000  0.00000000  0.00000000       0.111
   0.09618380  0.00000000  0.00000000       0.222
   0.00000000  0.10266003  0.00000000       0.222
   0.09618380  0.10266003  0.00000000       0.222
  -0.09618380  0.10266003  0.00000000       0.222
 
 k-points in reciprocal lattice and weights:  Automatic mesh                         
   0.00000000  0.00000000  0.00000000       0.111
   0.33333333  0.00000000  0.00000000       0.222
   0.00000000  0.33333333  0.00000000       0.222
   0.33333333  0.33333333  0.00000000       0.222
  -0.33333333  0.33333333  0.00000000       0.222
 
 position of ions in fractional coordinates (direct lattice) 
   0.49999899  0.49999954  0.00000000
   0.66670668  0.74999931  0.00000000
   0.49999899  0.00000000  0.00000000
   0.66670668  0.25000008  0.00000000
   0.00000000  0.49999954  0.00000000
   0.16670567  0.74999931  0.00000000
   0.00000000  0.00000000  0.00000000
   0.16670567  0.25000008  0.00000000
   0.74999993  0.49999954  0.05555556
   0.91670473  0.74999931  0.05555556
   0.74999993  0.00000000  0.05555556
   0.91670473  0.25000008  0.05555556
   0.25000007  0.49999954  0.05555556
   0.41670574  0.74999931  0.05555556
   0.25000007  0.00000000  0.05555556
   0.41670574  0.25000008  0.05555556
   0.50070240  0.49894709  0.11195762
   0.66503384  0.75000135  0.11219904
   0.50353660  0.00039137  0.11207542
   0.66532512  0.24961257  0.11210840
   0.00172384  0.49957001  0.11263710
   0.16472988  0.75180284  0.11199727
   0.00300952  0.00034230  0.11120098
   0.16694689  0.24773265  0.11175406
   0.75727189  0.50018360  0.16261643
   0.91120000  0.75120018  0.16301239
   0.75720204  0.99930806  0.16257111
   0.91097840  0.24887888  0.16274617
   0.25289272  0.49905898  0.16217779
   0.40717379  0.74684931  0.16307474
   0.24884517  0.99617212  0.16521408
   0.40916363  0.25460247  0.16615290
   0.21543280  0.06669320  0.28354946
   0.35182669  0.00295098  0.24623918
   0.42217558  0.84409865  0.27128339
   0.46642879  0.12637917  0.23859693
   0.12150167  0.97347750  0.28582934
   0.16734296  0.18287483  0.26485639
   0.25648432  0.09243943  0.32982774
   0.55778119  0.06688766  0.19239356
   0.51874441  0.79360335  0.24258697
   0.48072887  0.87052387  0.31466090
   0.33289251  0.74791845  0.27886112
 
 position of ions in cartesian coordinates  (Angst):
   4.27999130  4.00999560  0.00000000
   5.70700910  6.01499340  0.00000000
   4.27999130  0.00000000  0.00000000
   5.70700910  2.00500027  0.00000000
   0.00000000  4.00999560  0.00000000
   1.42700051  6.01499340  0.00000000
   0.00000000  0.00000000  0.00000000
   1.42700051  2.00500027  0.00000000
   6.41999930  4.00999560  1.23500000
   7.84699240  6.01499340  1.23500000
   6.41999930  0.00000000  1.23500000
   7.84699240  2.00500027  1.23500000
   2.14000059  4.00999560  1.23500000
   3.56700110  6.01499340  1.23500000
   2.14000059  0.00000000  1.23500000
   3.56700110  2.00500027  1.23500000
   4.28601245  4.00155501  2.48881787
   5.69268961  6.01500979  2.49418457
   4.31027325  0.00313882  2.49143666
   5.69518297  2.00189248  2.49216962
   0.01475603  4.00655078  2.50392262
   1.41008772  6.02945777  2.48969931
   0.02576151  0.00274528  2.47199784
   1.42906538  1.98681549  2.48429274
   6.48224730  4.01147179  3.61496324
   7.79987193  6.02462437  3.62376542
   6.48164938  8.01444923  3.61395567
   7.79797498  1.99600830  3.61784745
   2.16476168  4.00245230  3.60521238
   3.48540758  5.98973045  3.62515150
   2.13011465  7.98929901  3.67270910
   3.50244067  2.04191148  3.69357894
   1.84410476  0.53487934  6.30330455
   3.01163641  0.02366687  5.47389701
   3.61382293  6.76966996  6.03062986
   3.99263036  1.01356077  5.30400984
   1.04005430  7.80728824  6.35398623
   1.43245571  1.46665587  5.88775745
   2.19550572  0.74136411  7.33207067
   4.77460691  0.53643893  4.27690885
   4.44045205  6.36469775  5.39270839
   4.11503910  6.98160019  6.99491180
   2.84955989  5.99830494  6.19908259
 


--------------------------------------------------------------------------------------------------------


 k-point  1 :   0.0000 0.0000 0.0000  plane waves:   27673
 k-point  2 :   0.3333 0.0000 0.0000  plane waves:   27720
 k-point  3 :   0.0000 0.3333 0.0000  plane waves:   27710
 k-point  4 :   0.3333 0.3333 0.0000  plane waves:   27742
 k-point  5 :  -0.3333 0.3333 0.0000  plane waves:   27742

 maximum and minimum number of plane-waves per node :     27742    27673

 maximum number of plane-waves:     27742
 maximum index in each direction: 
   IXMAX=   14   IYMAX=   13   IZMAX=   36
   IXMIN=  -14   IYMIN=  -13   IZMIN=  -36

 WARNING: aliasing errors must be expected set NGX to  58 to avoid them
 WARNING: aliasing errors must be expected set NGY to  54 to avoid them
 WARNING: aliasing errors must be expected set NGZ to 146 to avoid them
 aliasing errors are usually negligible using standard VASP settings
 and one can safely disregard these warnings

 serial   3D FFT for wavefunctions
 parallel 3D FFT for charge:
    minimum data exchange during FFTs selected (reduces bandwidth)


 total amount of memory used by VASP on root node   203283. kBytes
========================================================================

   base      :      30000. kBytes
   nonlr-proj:       7756. kBytes
   fftplans  :       7367. kBytes
   grid      :      34170. kBytes
   one-center:       1337. kBytes
   wavefun   :     122653. kBytes
 
     INWAV:  cpu time    0.00: real time    0.00
 Broyden mixing: mesh for mixing (old mesh)
   NGX = 27   NGY = 27   NGZ = 73
  (NGX  = 84   NGY  = 80   NGZ  =224)
  gives a total of  53217 points

 initial charge density was supplied:
 charge density of overlapping atoms calculated
 number of electron     313.0000000 magnetization      52.1600000
 keeping initial charge density in first step


--------------------------------------------------------------------------------------------------------


 Maximum index for non-local projection operator         1314
 Maximum index for augmentation-charges          781 (set IRDMAX)


--------------------------------------------------------------------------------------------------------


 First call to EWALD:  gamma=   0.154
 Maximum number of real-space cells 4x 4x 2
 Maximum number of reciprocal cells 2x 2x 5

 FEWALD executed in parallel
    FEWALD:  cpu time    0.00: real time    0.00


----------------------------------------- Iteration    1(   1)  ---------------------------------------


    POTLOK:  cpu time    0.41: real time    0.41
    SETDIJ:  cpu time    0.05: real time    0.05
     EDDAV:  cpu time   32.36: real time   32.47
       DOS:  cpu time    0.00: real time    0.00
    --------------------------------------------
      LOOP:  cpu time   32.82: real time   32.93

 eigenvalue-minimisations  :  4320
 total energy-change (2. order) : 0.2197925E+04  (-0.1103516E+05)
 number of electron     313.0000000 magnetization      52.1600000
 augmentation part      313.0000000 magnetization      52.1600000

 Free energy of the ion-electron system (eV)
  ---------------------------------------------------
  alpha Z        PSCENC =       329.76814779
  Ewald energy   TEWEN  =    108276.45431197
  -Hartree energ DENC   =   -133562.17047024
  -exchange      EXHF   =         0.00000000
  -V(xc)+E(xc)   XCENC  =       615.67836843
  PAW double counting   =     23749.85691234   -25449.61764622
  entropy T*S    EENTRO =        -0.00403051
  eigenvalues    EBANDS =      1249.51641248
  atomic energy  EATOM  =     26988.44278752
  Solvation contrib.  Ediel  =         0.00000000
  ---------------------------------------------------
  free energy    TOTEN  =      2197.92479356 eV

  energy without entropy =     2197.92882407  energy(sigma->0) =     2197.92580119


--------------------------------------------------------------------------------------------------------




----------------------------------------- Iteration    1(   2)  ---------------------------------------


     EDDAV:  cpu time   28.62: real time   28.67
       DOS:  cpu time    0.00: real time    0.00
    --------------------------------------------
      LOOP:  cpu time   28.62: real time   28.67

 eigenvalue-minimisations  :  4424
 total energy-change (2. order) :-0.2246363E+04  (-0.2103906E+04)
 number of electron     313.0000000 magnetization      52.1600000
 augmentation part      313.0000000 magnetization      52.1600000

 Free energy of the ion-electron system (eV)
  ---------------------------------------------------
  alpha Z        PSCENC =       329.76814779
  Ewald energy   TEWEN  =    108276.45431197
  -Hartree energ DENC   =   -133562.17047024
  -exchange      EXHF   =         0.00000000
  -V(xc)+E(xc)   XCENC  =       615.67836843
  PAW double counting   =     23749.85691234   -25449.61764622
  entropy T*S    EENTRO =         0.01216905
  eigenvalues    EBANDS =      -996.86262098
  atomic energy  EATOM  =     26988.44278752
  Solvation contrib.  Ediel  =         0.00000000
  ---------------------------------------------------
  free energy    TOTEN  =       -48.43804034 eV

  energy without entropy =      -48.45020940  energy(sigma->0) =      -48.44108261


--------------------------------------------------------------------------------------------------------




----------------------------------------- Iteration    1(   3)  ---------------------------------------


     EDDAV:  cpu time   33.76: real time   33.82
       DOS:  cpu time    0.00: real time    0.00
    --------------------------------------------
      LOOP:  cpu time   33.76: real time   33.82

 eigenvalue-minimisations  :  5800
 total energy-change (2. order) :-0.2334370E+03  (-0.2123813E+03)
 number of electron     313.0000000 magnetization      52.1600000
 augmentation part      313.0000000 magnetization      52.1600000

 Free energy of the ion-electron system (eV)
  ---------------------------------------------------
  alpha Z        PSCENC =       329.76814779
  Ewald energy   TEWEN  =    108276.45431197
  -Hartree energ DENC   =   -133562.17047024
  -exchange      EXHF   =         0.00000000
  -V(xc)+E(xc)   XCENC  =       615.67836843
  PAW double counting   =     23749.85691234   -25449.61764622
  entropy T*S    EENTRO =        -0.02199598
  eigenvalues    EBANDS =     -1230.26541312
  atomic energy  EATOM  =     26988.44278752
  Solvation contrib.  Ediel  =         0.00000000
  ---------------------------------------------------
  free energy    TOTEN  =      -281.87499752 eV

  energy without entropy =     -281.85300153  energy(sigma->0) =     -281.86949852


--------------------------------------------------------------------------------------------------------




----------------------------------------- Iteration    1(   4)  ---------------------------------------


     EDDAV:  cpu time   31.11: real time   31.15
       DOS:  cpu time    0.00: real time    0.00
    --------------------------------------------
      LOOP:  cpu time   31.11: real time   31.15

 eigenvalue-minimisations  :  5448
 total energy-change (2. order) :-0.1707714E+02  (-0.1657794E+02)
 number of electron     313.0000000 magnetization      52.1600000
 augmentation part      313.0000000 magnetization      52.1600000

 Free energy of the ion-electron system (eV)
  ---------------------------------------------------
  alpha Z        PSCENC =       329.76814779
  Ewald energy   TEWEN  =    108276.45431197
  -Hartree energ DENC   =   -133562.17047024
  -exchange      EXHF   =         0.00000000
  -V(xc)+E(xc)   XCENC  =       615.67836843
  PAW double counting   =     23749.85691234   -25449.61764622
  entropy T*S    EENTRO =        -0.03467553
  eigenvalues    EBANDS =     -1247.32987786
  atomic energy  EATOM  =     26988.44278752
  Solvation contrib.  Ediel  =         0.00000000
  ---------------------------------------------------
  free energy    TOTEN  =      -298.95214180 eV

  energy without entropy =     -298.91746627  energy(sigma->0) =     -298.94347292


--------------------------------------------------------------------------------------------------------




----------------------------------------- Iteration    1(   5)  ---------------------------------------


     EDDAV:  cpu time   32.86: real time   32.91
       DOS:  cpu time    0.00: real time    0.00
    CHARGE:  cpu time    1.21: real time    1.21
    MIXING:  cpu time    0.01: real time    0.01
    --------------------------------------------
      LOOP:  cpu time   34.08: real time   34.13

 eigenvalue-minimisations  :  5824
 total energy-change (2. order) :-0.5947488E+00  (-0.5929462E+00)
 number of electron     313.0000727 magnetization      52.6249917
 augmentation part      150.0473118 magnetization      38.9104456

 Broyden mixing:
  rms(total) = 0.61087E+01    rms(broyden)= 0.61083E+01
  rms(prec ) = 0.64200E+01
  weight for this iteration     100.00

 Free energy of the ion-electron system (eV)
  ---------------------------------------------------
  alpha Z        PSCENC =       329.76814779
  Ewald energy   TEWEN  =    108276.45431197
  -Hartree energ DENC   =   -133562.17047024
  -exchange      EXHF   =         0.00000000
  -V(xc)+E(xc)   XCENC  =       615.67836843
  PAW double counting   =     23749.85691234   -25449.61764622
  entropy T*S    EENTRO =        -0.03471771
  eigenvalues    EBANDS =     -1247.92458450
  atomic energy  EATOM  =     26988.44278752
  Solvation contrib.  Ediel  =         0.00000000
  ---------------------------------------------------
  free energy    TOTEN  =      -299.54689063 eV

  energy without entropy =     -299.51217291  energy(sigma->0) =     -299.53821120


--------------------------------------------------------------------------------------------------------




----------------------------------------- Iteration    1(   6)  ---------------------------------------


    POTLOK:  cpu time    0.39: real time    0.39
    SETDIJ:  cpu time    0.04: real time    0.05
     EDDAV:  cpu time   32.12: real time   32.17
       DOS:  cpu time    0.00: real time    0.00
    CHARGE:  cpu time    1.39: real time    1.39
    MIXING:  cpu time    0.01: real time    0.01
    --------------------------------------------
      LOOP:  cpu time   33.96: real time   34.01

 eigenvalue-minimisations  :  5160
 total energy-change (2. order) :-0.5417354E+02  (-0.3391733E+02)
 number of electron     313.0000703 magnetization      52.0237642
 augmentation part      168.9418774 magnetization      47.3246766

 Broyden mixing:
  rms(total) = 0.12798E+02    rms(broyden)= 0.12797E+02
  rms(prec ) = 0.13729E+02
  weight for this iteration     100.00

 eigenvalues of (default mixing * dielectric matrix)
  average eigenvalue GAMMA=   0.2564
  0.2564

 Free energy of the ion-electron system (eV)
  ---------------------------------------------------
  alpha Z        PSCENC =       329.76814779
  Ewald energy   TEWEN  =    108276.45431197
  -Hartree energ DENC   =   -133234.12205543
  -exchange      EXHF   =         0.00000000
  -V(xc)+E(xc)   XCENC  =       601.31059769
  PAW double counting   =     26011.82164027   -27556.66179477
  entropy T*S    EENTRO =         0.04156383
  eigenvalues    EBANDS =     -1770.77562962
  atomic energy  EATOM  =     26988.44278752
  Solvation contrib.  Ediel  =         0.00000000
  ---------------------------------------------------
  free energy    TOTEN  =      -353.72043076 eV

  energy without entropy =     -353.76199458  energy(sigma->0) =     -353.73082171


--------------------------------------------------------------------------------------------------------




----------------------------------------- Iteration    1(   7)  ---------------------------------------


    POTLOK:  cpu time    0.41: real time    0.41
    SETDIJ:  cpu time    0.05: real time    0.05
     EDDAV:  cpu time   30.54: real time   30.57
       DOS:  cpu time    0.00: real time    0.00
    CHARGE:  cpu time    1.34: real time    1.34
    MIXING:  cpu time    0.01: real time    0.01
    --------------------------------------------
      LOOP:  cpu time   32.34: real time   32.38

 eigenvalue-minimisations  :  4840
 total energy-change (2. order) : 0.6157357E+02  (-0.2489451E+02)
 number of electron     313.0000885 magnetization      51.7379539
 augmentation part      174.2420702 magnetization      41.6979058

 Broyden mixing:
  rms(total) = 0.70703E+01    rms(broyden)= 0.70695E+01
  rms(prec ) = 0.76419E+01
  weight for this iteration     100.00

 eigenvalues of (default mixing * dielectric matrix)
  average eigenvalue GAMMA=   0.3726
  0.5918  0.1535

 Free energy of the ion-electron system (eV)
  ---------------------------------------------------
  alpha Z        PSCENC =       329.76814779
  Ewald energy   TEWEN  =    108276.45431197
  -Hartree energ DENC   =   -133168.19401357
  -exchange      EXHF   =         0.00000000
  -V(xc)+E(xc)   XCENC  =       596.35392861
  PAW double counting   =     26514.48791574   -28085.53603219
  entropy T*S    EENTRO =        -0.00062324
  eigenvalues    EBANDS =     -1743.92328396
  atomic energy  EATOM  =     26988.44278752
  Solvation contrib.  Ediel  =         0.00000000
  ---------------------------------------------------
  free energy    TOTEN  =      -292.14686132 eV

  energy without entropy =     -292.14623808  energy(sigma->0) =     -292.14670551


--------------------------------------------------------------------------------------------------------




----------------------------------------- Iteration    1(   8)  ---------------------------------------


    POTLOK:  cpu time    0.41: real time    0.41
    SETDIJ:  cpu time    0.05: real time    0.05
     EDDAV:  cpu time   31.44: real time   31.47
       DOS:  cpu time    0.00: real time    0.00
    CHARGE:  cpu time    1.36: real time    1.37
    MIXING:  cpu time    0.01: real time    0.01
    --------------------------------------------
      LOOP:  cpu time   33.28: real time   33.32

 eigenvalue-minimisations  :  5000
 total energy-change (2. order) : 0.2348046E+02  (-0.8398874E+01)
 number of electron     313.0000797 magnetization      51.5756281
 augmentation part      167.7429091 magnetization      42.9080211

 Broyden mixing:
  rms(total) = 0.51854E+01    rms(broyden)= 0.51848E+01
  rms(prec ) = 0.56276E+01
  weight for this iteration     100.00

 eigenvalues of (default mixing * dielectric matrix)
  average eigenvalue GAMMA=   0.4064
  0.7891  0.2764  0.1537

 Free energy of the ion-electron system (eV)
  ---------------------------------------------------
  alpha Z        PSCENC =       329.76814779
  Ewald energy   TEWEN  =    108276.45431197
  -Hartree energ DENC   =   -133438.53598563
  -exchange      EXHF   =         0.00000000
  -V(xc)+E(xc)   XCENC  =       600.97962462
  PAW double counting   =     27654.38208406   -29301.44357144
  entropy T*S    EENTRO =        -0.01179659
  eigenvalues    EBANDS =     -1378.70200691
  atomic energy  EATOM  =     26988.44278752
  Solvation contrib.  Ediel  =         0.00000000
  ---------------------------------------------------
  free energy    TOTEN  =      -268.66640461 eV

  energy without entropy =     -268.65460801  energy(sigma->0) =     -268.66345546


--------------------------------------------------------------------------------------------------------




----------------------------------------- Iteration    1(   9)  ---------------------------------------


    POTLOK:  cpu time    0.41: real time    0.41
    SETDIJ:  cpu time    0.05: real time    0.05
     EDDAV:  cpu time   34.05: real time   34.09
       DOS:  cpu time    0.00: real time    0.00
    CHARGE:  cpu time    1.34: real time    1.35
    MIXING:  cpu time    0.01: real time    0.01
    --------------------------------------------
      LOOP:  cpu time   35.87: real time   35.91

 eigenvalue-minimisations  :  5464
 total energy-change (2. order) :-0.2373517E+02  (-0.6164031E+01)
 number of electron     313.0000811 magnetization      51.1396477
 augmentation part      165.0743580 magnetization      45.3393344

 Broyden mixing:
  rms(total) = 0.87369E+01    rms(broyden)= 0.87364E+01
  rms(prec ) = 0.10317E+02
  weight for this iteration     100.00

 eigenvalues of (default mixing * dielectric matrix)
  average eigenvalue GAMMA=   0.3937
  0.7472  0.5514  0.1382  0.1382

 Free energy of the ion-electron system (eV)
  ---------------------------------------------------
  alpha Z        PSCENC =       329.76814779
  Ewald energy   TEWEN  =    108276.45431197
  -Hartree energ DENC   =   -133525.17087299
  -exchange      EXHF   =         0.00000000
  -V(xc)+E(xc)   XCENC  =       603.44184276
  PAW double counting   =     28221.47054405   -29897.73481829
  entropy T*S    EENTRO =         0.00733290
  eigenvalues    EBANDS =     -1289.08084704
  atomic energy  EATOM  =     26988.44278752
  Solvation contrib.  Ediel  =         0.00000000
  ---------------------------------------------------
  free energy    TOTEN  =      -292.40157133 eV

  energy without entropy =     -292.40890423  energy(sigma->0) =     -292.40340456


--------------------------------------------------------------------------------------------------------




----------------------------------------- Iteration    1(  10)  ---------------------------------------


    POTLOK:  cpu time    0.41: real time    0.41
    SETDIJ:  cpu time    0.05: real time    0.05
     EDDAV:  cpu time   32.11: real time   32.15
       DOS:  cpu time    0.00: real time    0.00
    CHARGE:  cpu time    1.39: real time    1.39
    MIXING:  cpu time    0.01: real time    0.01
    --------------------------------------------
      LOOP:  cpu time   33.97: real time   34.01

 eigenvalue-minimisations  :  5040
 total energy-change (2. order) : 0.1262747E+02  (-0.5401376E+01)
 number of electron     313.0000619 magnetization      50.9454859
 augmentation part      164.4554163 magnetization      42.8054601

 Broyden mixing:
  rms(total) = 0.62733E+01    rms(broyden)= 0.62728E+01
  rms(prec ) = 0.73627E+01
  weight for this iteration     100.00

 eigenvalues of (default mixing * dielectric matrix)
  average eigenvalue GAMMA=   0.3419
  0.6658  0.6658  0.1578  0.1578  0.0624

 Free energy of the ion-electron system (eV)
  ---------------------------------------------------
  alpha Z        PSCENC =       329.76814779
  Ewald energy   TEWEN  =    108276.45431197
  -Hartree energ DENC   =   -133537.41085727
  -exchange      EXHF   =         0.00000000
  -V(xc)+E(xc)   XCENC  =       602.33111446
  PAW double counting   =     28545.07219090   -30231.10357948
  entropy T*S    EENTRO =        -0.03468195
  eigenvalues    EBANDS =     -1253.29353339
  atomic energy  EATOM  =     26988.44278752
  Solvation contrib.  Ediel  =         0.00000000
  ---------------------------------------------------
  free energy    TOTEN  =      -279.77409944 eV

  energy without entropy =     -279.73941749  energy(sigma->0) =     -279.76542895


--------------------------------------------------------------------------------------------------------




----------------------------------------- Iteration    1(  11)  ---------------------------------------


    POTLOK:  cpu time    0.42: real time    0.42
    SETDIJ:  cpu time    0.05: real time    0.05
     EDDAV:  cpu time   31.72: real time   31.76
       DOS:  cpu time    0.00: real time    0.00
    CHARGE:  cpu time    1.39: real time    1.39
    MIXING:  cpu time    0.01: real time    0.01
    --------------------------------------------
      LOOP:  cpu time   33.60: real time   33.64

 eigenvalue-minimisations  :  5320
 total energy-change (2. order) : 0.1550312E+02  (-0.2219281E+01)
 number of electron     313.0000762 magnetization      50.8764563
 augmentation part      165.1891729 magnetization      41.3362435

 Broyden mixing:
  rms(total) = 0.34064E+01    rms(broyden)= 0.34061E+01
  rms(prec ) = 0.37790E+01
  weight for this iteration     100.00

 eigenvalues of (default mixing * dielectric matrix)
  average eigenvalue GAMMA=   0.3652
  0.9653  0.4328  0.4328  0.1643  0.0979  0.0979

 Free energy of the ion-electron system (eV)
  ---------------------------------------------------
  alpha Z        PSCENC =       329.76814779
  Ewald energy   TEWEN  =    108276.45431197
  -Hartree energ DENC   =   -133529.27251596
  -exchange      EXHF   =         0.00000000
  -V(xc)+E(xc)   XCENC  =       602.19398525
  PAW double counting   =     28657.00688446   -30344.02853012
  entropy T*S    EENTRO =         0.02487037
  eigenvalues    EBANDS =     -1244.86091586
  atomic energy  EATOM  =     26988.44278752
  Solvation contrib.  Ediel  =         0.00000000
  ---------------------------------------------------
  free energy    TOTEN  =      -264.27097458 eV

  energy without entropy =     -264.29584495  energy(sigma->0) =     -264.27719218


--------------------------------------------------------------------------------------------------------




----------------------------------------- Iteration    1(  12)  ---------------------------------------


    POTLOK:  cpu time    0.41: real time    0.41
    SETDIJ:  cpu time    0.05: real time    0.05
     EDDAV:  cpu time   30.66: real time   30.70
       DOS:  cpu time    0.00: real time    0.00
    CHARGE:  cpu time    1.36: real time    1.37
    MIXING:  cpu time    0.01: real time    0.01
    --------------------------------------------
      LOOP:  cpu time   32.50: real time   32.54

 eigenvalue-minimisations  :  5056
 total energy-change (2. order) : 0.6405744E-01  (-0.1215202E+01)
 number of electron     313.0000775 magnetization      50.8138624
 augmentation part      164.9843387 magnetization      41.5678523

 Broyden mixing:
  rms(total) = 0.34271E+01    rms(broyden)= 0.34268E+01
  rms(prec ) = 0.37540E+01
  weight for this iteration     100.00

 eigenvalues of (default mixing * dielectric matrix)
  average eigenvalue GAMMA=   0.3896
  1.2176  0.5129  0.5129  0.1597  0.1196  0.1196  0.0851

 Free energy of the ion-electron system (eV)
  ---------------------------------------------------
  alpha Z        PSCENC =       329.76814779
  Ewald energy   TEWEN  =    108276.45431197
  -Hartree energ DENC   =   -133543.48269225
  -exchange      EXHF   =         0.00000000
  -V(xc)+E(xc)   XCENC  =       603.18695594
  PAW double counting   =     28911.43666294   -30603.22600873
  entropy T*S    EENTRO =        -0.00403869
  eigenvalues    EBANDS =     -1226.78304365
  atomic energy  EATOM  =     26988.44278752
  Solvation contrib.  Ediel  =         0.00000000
  ---------------------------------------------------
  free energy    TOTEN  =      -264.20691715 eV

  energy without entropy =     -264.20287846  energy(sigma->0) =     -264.20590747


--------------------------------------------------------------------------------------------------------




----------------------------------------- Iteration    1(  13)  ---------------------------------------


    POTLOK:  cpu time    0.42: real time    0.42
    SETDIJ:  cpu time    0.05: real time    0.05
     EDDAV:  cpu time   28.34: real time   28.38
       DOS:  cpu time    0.00: real time    0.00
    CHARGE:  cpu time    1.38: real time    1.38
    MIXING:  cpu time    0.01: real time    0.01
    --------------------------------------------
      LOOP:  cpu time   30.20: real time   30.24

 eigenvalue-minimisations  :  4632
 total energy-change (2. order) : 0.3728940E+01  (-0.7640326E+00)
 number of electron     313.0000781 magnetization      50.8440679
 augmentation part      165.0132720 magnetization      41.8360907

 Broyden mixing:
  rms(total) = 0.18040E+01    rms(broyden)= 0.18037E+01
  rms(prec ) = 0.19388E+01
  weight for this iteration     100.00

 eigenvalues of (default mixing * dielectric matrix)
  average eigenvalue GAMMA=   0.3622
  1.2494  0.4890  0.4890  0.1814  0.1513  0.1513  0.0929  0.0929

 Free energy of the ion-electron system (eV)
  ---------------------------------------------------
  alpha Z        PSCENC =       329.76814779
  Ewald energy   TEWEN  =    108276.45431197
  -Hartree energ DENC   =   -133558.01873502
  -exchange      EXHF   =         0.00000000
  -V(xc)+E(xc)   XCENC  =       604.10840536
  PAW double counting   =     29219.36152722   -30916.37805934
  entropy T*S    EENTRO =        -0.05550132
  eigenvalues    EBANDS =     -1204.16086150
  atomic energy  EATOM  =     26988.44278752
  Solvation contrib.  Ediel  =         0.00000000
  ---------------------------------------------------
  free energy    TOTEN  =      -260.47797733 eV

  energy without entropy =     -260.42247601  energy(sigma->0) =     -260.46410200


--------------------------------------------------------------------------------------------------------




----------------------------------------- Iteration    1(  14)  ---------------------------------------


    POTLOK:  cpu time    0.43: real time    0.43
    SETDIJ:  cpu time    0.06: real time    0.06
     EDDAV:  cpu time   29.94: real time   29.97
       DOS:  cpu time    0.00: real time    0.00
    CHARGE:  cpu time    1.37: real time    1.37
    MIXING:  cpu time    0.01: real time    0.01
    --------------------------------------------
      LOOP:  cpu time   31.81: real time   31.85

 eigenvalue-minimisations  :  5000
 total energy-change (2. order) : 0.1230559E+00  (-0.2957143E+00)
 number of electron     313.0000785 magnetization      50.9756847
 augmentation part      164.9156367 magnetization      42.2898182

 Broyden mixing:
  rms(total) = 0.13314E+01    rms(broyden)= 0.13311E+01
  rms(prec ) = 0.14074E+01
  weight for this iteration     100.00

 eigenvalues of (default mixing * dielectric matrix)
  average eigenvalue GAMMA=   0.3806
  1.3163  0.5708  0.5708  0.3903  0.1486  0.1450  0.0986  0.0986  0.0860

 Free energy of the ion-electron system (eV)
  ---------------------------------------------------
  alpha Z        PSCENC =       329.76814779
  Ewald energy   TEWEN  =    108276.45431197
  -Hartree energ DENC   =   -133562.19265117
  -exchange      EXHF   =         0.00000000
  -V(xc)+E(xc)   XCENC  =       604.21956165
  PAW double counting   =     29273.00716281   -30970.54903895
  entropy T*S    EENTRO =        -0.06298890
  eigenvalues    EBANDS =     -1199.44221413
  atomic energy  EATOM  =     26988.44278752
  Solvation contrib.  Ediel  =         0.00000000
  ---------------------------------------------------
  free energy    TOTEN  =      -260.35492141 eV

  energy without entropy =     -260.29193251  energy(sigma->0) =     -260.33917419


--------------------------------------------------------------------------------------------------------




----------------------------------------- Iteration    1(  15)  ---------------------------------------


    POTLOK:  cpu time    0.41: real time    0.41
    SETDIJ:  cpu time    0.05: real time    0.05
     EDDAV:  cpu time   30.56: real time   30.60
       DOS:  cpu time    0.00: real time    0.00
    CHARGE:  cpu time    1.34: real time    1.34
    MIXING:  cpu time    0.01: real time    0.01
    --------------------------------------------
      LOOP:  cpu time   32.38: real time   32.42

 eigenvalue-minimisations  :  5072
 total energy-change (2. order) :-0.6805108E+00  (-0.1381651E+00)
 number of electron     313.0000786 magnetization      51.0484891
 augmentation part      164.9205430 magnetization      42.9455905

 Broyden mixing:
  rms(total) = 0.11180E+01    rms(broyden)= 0.11180E+01
  rms(prec ) = 0.11601E+01
  weight for this iteration     100.00

 eigenvalues of (default mixing * dielectric matrix)
  average eigenvalue GAMMA=   0.3695
  1.3291  0.6034  0.6034  0.3518  0.2211  0.1676  0.1174  0.1174  0.0887  0.0952

 Free energy of the ion-electron system (eV)
  ---------------------------------------------------
  alpha Z        PSCENC =       329.76814779
  Ewald energy   TEWEN  =    108276.45431197
  -Hartree energ DENC   =   -133572.20256430
  -exchange      EXHF   =         0.00000000
  -V(xc)+E(xc)   XCENC  =       604.45001076
  PAW double counting   =     29400.30192713   -31098.45536942
  entropy T*S    EENTRO =        -0.05538449
  eigenvalues    EBANDS =     -1189.73929914
  atomic energy  EATOM  =     26988.44278752
  Solvation contrib.  Ediel  =         0.00000000
  ---------------------------------------------------
  free energy    TOTEN  =      -261.03543219 eV

  energy without entropy =     -260.98004770  energy(sigma->0) =     -261.02158607


--------------------------------------------------------------------------------------------------------




----------------------------------------- Iteration    1(  16)  ---------------------------------------


    POTLOK:  cpu time    0.36: real time    0.36
    SETDIJ:  cpu time    0.04: real time    0.04
     EDDAV:  cpu time   28.79: real time   28.82
       DOS:  cpu time    0.00: real time    0.00
    CHARGE:  cpu time    1.42: real time    1.42
    MIXING:  cpu time    0.01: real time    0.01
    --------------------------------------------
      LOOP:  cpu time   30.62: real time   30.66

 eigenvalue-minimisations  :  4640
 total energy-change (2. order) :-0.1950219E+00  (-0.6701268E-01)
 number of electron     313.0000793 magnetization      51.2566146
 augmentation part      164.9984532 magnetization      43.3482459

 Broyden mixing:
  rms(total) = 0.10024E+01    rms(broyden)= 0.10023E+01
  rms(prec ) = 0.10346E+01
  weight for this iteration     100.00

 eigenvalues of (default mixing * dielectric matrix)
  average eigenvalue GAMMA=   0.4246
  1.3587  0.8370  0.8370  0.4686  0.4686  0.1595  0.1264  0.1264  0.0883  0.0999
  0.0999

 Free energy of the ion-electron system (eV)
  ---------------------------------------------------
  alpha Z        PSCENC =       329.76814779
  Ewald energy   TEWEN  =    108276.45431197
  -Hartree energ DENC   =   -133574.56136749
  -exchange      EXHF   =         0.00000000
  -V(xc)+E(xc)   XCENC  =       604.55199467
  PAW double counting   =     29439.86504665   -31137.97174278
  entropy T*S    EENTRO =        -0.05951156
  eigenvalues    EBANDS =     -1187.72012084
  atomic energy  EATOM  =     26988.44278752
  Solvation contrib.  Ediel  =         0.00000000
  ---------------------------------------------------
  free energy    TOTEN  =      -261.23045407 eV

  energy without entropy =     -261.17094250  energy(sigma->0) =     -261.21557618


--------------------------------------------------------------------------------------------------------




----------------------------------------- Iteration    1(  17)  ---------------------------------------


    POTLOK:  cpu time    0.42: real time    0.42
    SETDIJ:  cpu time    0.05: real time    0.05
     EDDAV:  cpu time   30.84: real time   30.89
       DOS:  cpu time    0.00: real time    0.00
    CHARGE:  cpu time    1.44: real time    1.44
    MIXING:  cpu time    0.02: real time    0.01
    --------------------------------------------
      LOOP:  cpu time   32.77: real time   32.81

 eigenvalue-minimisations  :  5112
 total energy-change (2. order) :-0.5839824E+00  (-0.6870363E-01)
 number of electron     313.0000797 magnetization      51.3918254
 augmentation part      165.2101994 magnetization      43.8348607

 Broyden mixing:
  rms(total) = 0.93574E+00    rms(broyden)= 0.93571E+00
  rms(prec ) = 0.97924E+00
  weight for this iteration     100.00

 eigenvalues of (default mixing * dielectric matrix)
  average eigenvalue GAMMA=   0.4340
  1.4035  0.9346  0.9346  0.4950  0.4950  0.2439  0.1578  0.1367  0.1112  0.1112
  0.0877  0.0965

 Free energy of the ion-electron system (eV)
  ---------------------------------------------------
  alpha Z        PSCENC =       329.76814779
  Ewald energy   TEWEN  =    108276.45431197
  -Hartree energ DENC   =   -133578.30552110
  -exchange      EXHF   =         0.00000000
  -V(xc)+E(xc)   XCENC  =       604.77187659
  PAW double counting   =     29513.95121313   -31211.73076312
  entropy T*S    EENTRO =        -0.05214351
  eigenvalues    EBANDS =     -1185.11434571
  atomic energy  EATOM  =     26988.44278752
  Solvation contrib.  Ediel  =         0.00000000
  ---------------------------------------------------
  free energy    TOTEN  =      -261.81443643 eV

  energy without entropy =     -261.76229293  energy(sigma->0) =     -261.80140056


--------------------------------------------------------------------------------------------------------




----------------------------------------- Iteration    1(  18)  ---------------------------------------


    POTLOK:  cpu time    0.42: real time    0.42
    SETDIJ:  cpu time    0.05: real time    0.05
     EDDAV:  cpu time   30.50: real time   30.54
       DOS:  cpu time    0.00: real time    0.00
    CHARGE:  cpu time    1.45: real time    1.45
    MIXING:  cpu time    0.02: real time    0.02
    --------------------------------------------
      LOOP:  cpu time   32.44: real time   32.48

 eigenvalue-minimisations  :  5040
 total energy-change (2. order) :-0.3493322E+00  (-0.7506833E-01)
 number of electron     313.0000801 magnetization      51.7230767
 augmentation part      165.4227874 magnetization      44.3672676

 Broyden mixing:
  rms(total) = 0.10544E+01    rms(broyden)= 0.10544E+01
  rms(prec ) = 0.11246E+01
  weight for this iteration     100.00

 eigenvalues of (default mixing * dielectric matrix)
  average eigenvalue GAMMA=   0.4974
  1.7425  1.0644  1.0644  0.6565  0.6565  0.4634  0.1585  0.1285  0.1285  0.1095
  0.1095  0.0880  0.0960

 Free energy of the ion-electron system (eV)
  ---------------------------------------------------
  alpha Z        PSCENC =       329.76814779
  Ewald energy   TEWEN  =    108276.45431197
  -Hartree energ DENC   =   -133582.23700937
  -exchange      EXHF   =         0.00000000
  -V(xc)+E(xc)   XCENC  =       604.86739679
  PAW double counting   =     29573.60634152   -31271.36168289
  entropy T*S    EENTRO =        -0.04245454
  eigenvalues    EBANDS =     -1181.66160739
  atomic energy  EATOM  =     26988.44278752
  Solvation contrib.  Ediel  =         0.00000000
  ---------------------------------------------------
  free energy    TOTEN  =      -262.16376861 eV

  energy without entropy =     -262.12131407  energy(sigma->0) =     -262.15315497


--------------------------------------------------------------------------------------------------------




----------------------------------------- Iteration    1(  19)  ---------------------------------------


    POTLOK:  cpu time    0.41: real time    0.41
    SETDIJ:  cpu time    0.05: real time    0.05
     EDDAV:  cpu time   31.31: real time   31.35
       DOS:  cpu time    0.00: real time    0.00
    CHARGE:  cpu time    1.34: real time    1.35
    MIXING:  cpu time    0.02: real time    0.02
    --------------------------------------------
      LOOP:  cpu time   33.14: real time   33.18

 eigenvalue-minimisations  :  5208
 total energy-change (2. order) :-0.1092383E+00  (-0.9816255E-01)
 number of electron     313.0000796 magnetization      51.8595485
 augmentation part      165.7323796 magnetization      44.8692659

 Broyden mixing:
  rms(total) = 0.88330E+00    rms(broyden)= 0.88320E+00
  rms(prec ) = 0.95288E+00
  weight for this iteration     100.00

 eigenvalues of (default mixing * dielectric matrix)
  average eigenvalue GAMMA=   0.4820
  1.8348  1.0580  1.0580  0.6722  0.6722  0.4778  0.1587  0.1587  0.1358  0.1162
  0.1162  0.0879  0.1027  0.0983

 Free energy of the ion-electron system (eV)
  ---------------------------------------------------
  alpha Z        PSCENC =       329.76814779
  Ewald energy   TEWEN  =    108276.45431197
  -Hartree energ DENC   =   -133601.32723442
  -exchange      EXHF   =         0.00000000
  -V(xc)+E(xc)   XCENC  =       605.03417960
  PAW double counting   =     29751.11030086   -31450.04084381
  entropy T*S    EENTRO =        -0.03674002
  eigenvalues    EBANDS =     -1161.67791642
  atomic energy  EATOM  =     26988.44278752
  Solvation contrib.  Ediel  =         0.00000000
  ---------------------------------------------------
  free energy    TOTEN  =      -262.27300692 eV

  energy without entropy =     -262.23626690  energy(sigma->0) =     -262.26382191


--------------------------------------------------------------------------------------------------------




----------------------------------------- Iteration    1(  20)  ---------------------------------------


    POTLOK:  cpu time    0.41: real time    0.41
    SETDIJ:  cpu time    0.05: real time    0.05
     EDDAV:  cpu time   30.21: real time   30.24
       DOS:  cpu time    0.00: real time    0.00
    CHARGE:  cpu time    1.32: real time    1.33
    MIXING:  cpu time    0.02: real time    0.02
    --------------------------------------------
      LOOP:  cpu time   32.02: real time   32.05

 eigenvalue-minimisations  :  4952
 total energy-change (2. order) : 0.2274730E+00  (-0.6200649E-01)
 number of electron     313.0000793 magnetization      52.1114803
 augmentation part      165.8776268 magnetization      45.2784520

 Broyden mixing:
  rms(total) = 0.48256E+00    rms(broyden)= 0.48248E+00
  rms(prec ) = 0.50575E+00
  weight for this iteration     100.00

 eigenvalues of (default mixing * dielectric matrix)
  average eigenvalue GAMMA=   0.4882
  2.1058  0.9471  0.9471  0.7409  0.7409  0.4481  0.4481  0.1589  0.1441  0.1215
  0.1215  0.0879  0.1071  0.1071  0.0966

 Free energy of the ion-electron system (eV)
  ---------------------------------------------------
  alpha Z        PSCENC =       329.76814779
  Ewald energy   TEWEN  =    108276.45431197
  -Hartree energ DENC   =   -133606.92564689
  -exchange      EXHF   =         0.00000000
  -V(xc)+E(xc)   XCENC  =       605.31907404
  PAW double counting   =     29779.74871477   -31478.60746799
  entropy T*S    EENTRO =        -0.04359958
  eigenvalues    EBANDS =     -1156.20185558
  atomic energy  EATOM  =     26988.44278752
  Solvation contrib.  Ediel  =         0.00000000
  ---------------------------------------------------
  free energy    TOTEN  =      -262.04553394 eV

  energy without entropy =     -262.00193437  energy(sigma->0) =     -262.03463405


--------------------------------------------------------------------------------------------------------




----------------------------------------- Iteration    1(  21)  ---------------------------------------


    POTLOK:  cpu time    0.42: real time    0.42
    SETDIJ:  cpu time    0.05: real time    0.05
     EDDAV:  cpu time   33.32: real time   33.36
       DOS:  cpu time    0.00: real time    0.00
    CHARGE:  cpu time    1.34: real time    1.34
    MIXING:  cpu time    0.02: real time    0.02
    --------------------------------------------
      LOOP:  cpu time   35.14: real time   35.19

 eigenvalue-minimisations  :  5472
 total energy-change (2. order) : 0.1329128E+00  (-0.2723860E-01)
[...]
     10     Co         -0.031         -0.033          0.930
     11     Co         -0.036         -0.034          0.936
     12     Co         -0.032         -0.034          0.930
     13     Co         -0.036         -0.034          0.938
     14     Co         -0.034         -0.035          0.931
     15     Co         -0.039         -0.038          0.931
     16     Co         -0.036         -0.038          0.928
     17     Co         -0.043         -0.035          0.939
     18     Co         -0.031         -0.028          0.932
     19     Co         -0.016         -0.011          0.907
     20     Co         -0.020         -0.019          0.931
     21     Co         -0.043         -0.037          0.943
     22     Co         -0.039         -0.034          0.931
     23     Co         -0.040         -0.036          0.925
     24     Co         -0.038         -0.031          0.935
     25     Co          0.035          0.034          1.060
     26     Co          0.028          0.029          1.065
     27     Co          0.026          0.030          1.019
     28     Co          0.039          0.039          1.056
     29     Co          0.039          0.038          1.050
     30     Co          0.084          0.080          0.990
     31     Co          0.062          0.067          0.976
     32     Co          0.108          0.095          0.970
     33     C          -0.147         -0.124          0.830
     34     C           0.015          0.002          0.655
     35     C          -0.143         -0.119          0.817
     36     O          -0.189         -0.157          1.022
     37     H           0.057          0.040          0.811
     38     H           0.043          0.026          0.847
     39     H           0.059          0.046          0.732
     40     H          -0.003         -0.012          0.696
     41     H           0.024          0.014          0.796
     42     H           0.068          0.053          0.723
     43     H           0.062          0.042          0.788

  dDsC method for vdW energy calculation
  ---------------------------------------------------------------------------------------------

  Parameters of vdW forcefield:
            C6dDsC            XDM            ALPHAts        RELVOL
            (au)              (au)            (au)                
   ---------------------------------------------------------------
   Co        540.289         11.940         54.078          1.082
   Co        539.713         11.955         53.951          1.079
   Co        541.455         11.970         54.059          1.081
   Co        538.747         11.944         53.907          1.078
   Co        540.094         11.951         54.009          1.080
   Co        538.460         11.934         53.923          1.078
   Co        540.822         11.941         54.126          1.083
   Co        542.909         11.994         54.095          1.082
   Co        325.367          8.293         46.886          0.938
   Co        321.800          8.272         46.491          0.930
   Co        324.207          8.280         46.793          0.936
   Co        321.739          8.271         46.485          0.930
   Co        325.522          8.291         46.923          0.938
   Co        322.541          8.278         46.564          0.931
   Co        322.897          8.288         46.560          0.931
   Co        321.393          8.278         46.397          0.928
   Co        328.596          8.366         46.939          0.939
   Co        325.473          8.347         46.599          0.932
   Co        298.911          7.874         45.368          0.907
   Co        322.767          8.290         46.531          0.931
   Co        330.758          8.384         47.148          0.943
   Co        323.390          8.300         46.565          0.931
   Co        318.951          8.244         46.237          0.925
   Co        325.664          8.328         46.734          0.935
   Co        513.790         11.581         53.021          1.060
   Co        521.487         11.703         53.252          1.065
   Co        459.851         10.784         50.960          1.019
   Co        511.544         11.578         52.802          1.056
   Co        506.319         11.521         52.522          1.050
   Co        425.028         10.260         49.506          0.990
   Co        408.765         10.015         48.778          0.976
   Co        414.527         10.209         48.523          0.970
   C          46.207          5.546          9.958          0.830
   C          30.040          4.570          7.856          0.655
   C          44.771          5.457          9.805          0.817
   O          27.801          6.019          5.520          1.022
   H           6.556          2.146          3.651          0.811
   H           7.509          2.354          3.812          0.847
   H           4.776          1.734          3.292          0.732
   H           5.334          2.035          3.133          0.696
   H           7.062          2.357          3.580          0.796
   H           4.643          1.706          3.252          0.723
   H           6.210          2.092          3.547          0.788

  IVDW =   4
  VDW_RADIUS =    50.000 A
  VDW_S6 aka ATT0 =    13.960
  VDW_SR aka BTT0 =     1.320
  LVDW_ONECELL = F F F

  Number of pair interactions contributing to vdW energy:  325509
  Edisp (eV):   -7.01367
    FORVDW:  cpu time   16.63: real time   16.64

  FORCE on cell =-STRESS in cart. coord.  units (eV):
  Direction    XX          YY          ZZ          XY          YZ          ZX
  --------------------------------------------------------------------------------------
  Alpha Z   329.76815   329.76815   329.76815
  Ewald  123417.85764124115.95015************   -30.41725  -119.92979   -40.19310
  Hartree129551.00374130010.92303************   -28.98093   -75.06463   -40.38348
  E(xc)   -1569.30409 -1569.07216 -1571.69448     0.03017    -0.10800    -0.10205
  Local  ************************258800.31096    67.48811   191.35621    79.85217
  n-local  -234.35602  -227.85482  -250.76640    -0.34470    -0.99753     0.36080
  augment  4995.11767  4991.46991  4990.65986    -0.01313     1.29242    -1.81292
  Kinetic  2793.93791  2788.27680  2818.65343    -7.88254     3.44579     2.17060
  Fock        0.00000     0.00000     0.00000     0.00000     0.00000     0.00000
  vdW        -8.86480    -8.85423    -4.46978     0.05533     0.03732     0.07670
  -------------------------------------------------------------------------------------
  Total     -24.25434   -23.60130    -7.56885    -0.06495     0.03181    -0.03128
  in kB     -25.46317   -24.77758    -7.94608    -0.06819     0.03339    -0.03284
  external pressure =      -19.40 kB  Pullay stress =        0.00 kB


 VOLUME and BASIS-vectors are now :
 -----------------------------------------------------------------------------
  energy-cutoff  :      400.00
  volume of cell :     1526.12
      direct lattice vectors                 reciprocal lattice vectors
     8.559999890  0.000000000  0.000000000     0.116822431  0.000000000  0.000000000
     0.000000000  8.019998610  0.000000000     0.000000000  0.124688301  0.000000000
     0.000000000  0.000000000 22.230000000     0.000000000  0.000000000  0.044984256

  length of vectors
     8.559999890  8.019998610 22.230000000     0.116822431  0.124688301  0.044984256


 FORCES acting on ions
    electron-ion (+dipol)            ewald-force                    non-local-force                 convergence-correction
 -----------------------------------------------------------------------------------------------
   0.443E+02 -.117E+01 0.198E+04   -.428E+02 0.116E+01 -.198E+04   -.121E+01 0.694E-04 -.421E+01   -.113E-02 -.380E-02 -.381E-02
   -.533E+02 0.544E+01 0.198E+04   0.519E+02 -.548E+01 -.198E+04   0.113E+01 0.281E-01 -.425E+01   -.136E-02 0.889E-03 -.704E-02
   0.451E+02 0.106E+01 0.199E+04   -.438E+02 -.110E+01 -.199E+04   -.112E+01 0.548E-01 -.432E+01   -.305E-02 0.381E-02 -.201E-02
   -.535E+02 -.547E+01 0.198E+04   0.521E+02 0.559E+01 -.198E+04   0.117E+01 -.923E-01 -.433E+01   -.536E-02 -.884E-03 -.190E-02
   0.516E+02 -.697E+00 0.197E+04   -.502E+02 0.665E+00 -.197E+04   -.119E+01 0.324E-01 -.429E+01   0.214E-02 0.355E-03 -.505E-02
   -.431E+02 0.626E+01 0.198E+04   0.417E+02 -.626E+01 -.198E+04   0.118E+01 0.686E-03 -.432E+01   -.691E-03 0.127E-02 -.667E-02
   0.529E+02 0.669E+00 0.199E+04   -.514E+02 -.670E+00 -.198E+04   -.119E+01 -.565E-02 -.428E+01   0.405E-02 -.380E-03 -.766E-02
   -.426E+02 -.624E+01 0.199E+04   0.412E+02 0.627E+01 -.198E+04   0.118E+01 -.430E-01 -.409E+01   0.325E-02 -.127E-02 -.259E-02
   -.156E+02 -.261E+01 0.858E+03   0.158E+02 0.259E+01 -.859E+03   -.296E+00 0.141E-01 0.810E+00   -.687E-03 -.297E-02 -.597E-02
   0.115E+02 0.136E+02 0.862E+03   -.117E+02 -.136E+02 -.863E+03   0.240E+00 -.397E-02 0.800E+00   0.186E-02 -.275E-02 -.991E-02
   -.209E+02 0.323E+01 0.881E+03   0.211E+02 -.326E+01 -.883E+03   -.309E+00 0.467E-02 0.799E+00   -.574E-02 0.301E-02 -.727E-02
   0.896E+01 -.137E+02 0.865E+03   -.918E+01 0.137E+02 -.866E+03   0.265E+00 0.236E-01 0.817E+00   0.700E-03 0.273E-02 -.804E-02
   0.391E+01 -.222E+01 0.875E+03   -.370E+01 0.222E+01 -.876E+03   -.272E+00 -.189E-01 0.833E+00   0.661E-04 -.470E-02 -.814E-02
   0.249E+01 0.134E+02 0.888E+03   -.273E+01 -.133E+02 -.889E+03   0.326E+00 -.372E-01 0.601E+00   -.133E-03 0.351E-02 -.673E-02
   -.330E+01 0.162E+01 0.897E+03   0.365E+01 -.155E+01 -.898E+03   -.208E+00 -.516E-01 0.467E+00   0.525E-02 0.481E-02 -.920E-02
   0.429E+01 -.129E+02 0.888E+03   -.455E+01 0.129E+02 -.889E+03   0.283E+00 0.644E-01 0.353E+00   0.125E-02 -.355E-02 -.593E-02
   -.444E+02 -.830E+01 -.523E+03   0.447E+02 0.821E+01 0.524E+03   -.311E+00 0.991E-01 -.984E+00   0.592E-03 -.473E-02 -.562E-02
   -.102E+02 0.347E+02 -.529E+03   0.969E+01 -.347E+02 0.530E+03   0.481E+00 0.436E-01 -.803E+00   -.321E-02 0.700E-03 -.289E-02
   -.322E+02 0.158E+02 -.418E+03   0.326E+02 -.163E+02 0.418E+03   -.345E+00 0.534E+00 -.533E-01   -.190E-02 0.472E-02 -.728E-02
   -.174E+02 -.402E+02 -.511E+03   0.172E+02 0.405E+02 0.511E+03   0.202E+00 -.322E+00 -.362E+00   -.646E-02 -.651E-03 -.645E-02
   -.333E+01 -.320E+01 -.567E+03   0.371E+01 0.321E+01 0.568E+03   -.381E+00 -.217E-01 -.828E+00   0.489E-03 -.932E-03 -.610E-02
   0.569E+02 0.399E+02 -.506E+03   -.573E+02 -.398E+02 0.507E+03   0.327E+00 -.120E+00 -.784E+00   0.187E-02 -.809E-03 -.634E-02
   0.164E+02 0.236E+01 -.502E+03   -.159E+02 -.234E+01 0.503E+03   -.478E+00 -.233E-01 -.875E+00   0.285E-02 0.108E-02 -.704E-02
   0.581E+02 -.355E+02 -.495E+03   -.583E+02 0.353E+02 0.496E+03   0.184E+00 0.230E+00 -.775E+00   0.482E-02 0.688E-03 -.959E-02
   0.265E+02 -.699E+01 -.168E+04   -.254E+02 0.701E+01 0.168E+04   -.110E+01 -.220E-01 0.390E+01   -.130E-02 -.166E-02 -.155E-02
   -.440E+02 0.383E+02 -.168E+04   0.428E+02 -.382E+02 0.168E+04   0.115E+01 -.749E-01 0.379E+01   -.127E-02 -.311E-02 0.541E-03
   -.425E+02 0.171E+02 -.163E+04   0.430E+02 -.171E+02 0.162E+04   -.562E+00 -.836E-02 0.323E+01   -.584E-02 0.166E-02 -.801E-03
   -.448E+02 -.388E+02 -.167E+04   0.436E+02 0.389E+02 0.167E+04   0.115E+01 -.351E-01 0.387E+01   -.252E-02 0.313E-02 -.268E-02
   0.968E+02 -.123E+02 -.164E+04   -.958E+02 0.122E+02 0.163E+04   -.996E+00 0.378E-01 0.380E+01   0.516E-03 -.747E-03 -.304E-02
   -.677E+02 0.113E+03 -.152E+04   0.665E+02 -.114E+03 0.152E+04   0.118E+01 0.703E+00 0.566E+01   0.236E-02 0.173E-02 -.980E-03
   0.181E+03 0.202E+02 -.144E+04   -.180E+03 -.216E+02 0.144E+04   -.153E+01 0.140E+01 0.216E+01   0.508E-02 0.841E-03 -.396E-02
   -.366E+02 -.170E+03 -.150E+04   0.355E+02 0.171E+03 0.149E+04   0.104E+01 -.105E+01 0.302E+01   0.295E-02 -.170E-02 -.827E-02
   0.125E+03 -.405E+02 -.977E+03   -.125E+03 0.411E+02 0.977E+03   0.496E+00 -.582E+00 -.395E+00   -.173E-03 -.600E-05 0.162E-02
   0.499E+02 0.558E+02 -.943E+03   -.549E+02 -.602E+02 0.942E+03   0.497E+01 0.437E+01 0.132E+01   0.541E-03 -.667E-03 0.103E-02
   -.516E+02 0.121E+03 -.982E+03   0.510E+02 -.120E+03 0.983E+03   0.582E+00 -.641E+00 -.978E+00   0.357E-03 -.627E-03 0.767E-03
   -.199E+03 -.152E+03 -.148E+04   0.222E+03 0.175E+03 0.149E+04   -.227E+02 -.234E+02 -.132E+02   0.128E-02 -.613E-03 0.174E-02
   0.591E+02 0.340E+02 -.236E+03   -.632E+02 -.377E+02 0.236E+03   0.410E+01 0.372E+01 -.262E+00   -.350E-04 -.701E-04 0.399E-03
   0.411E+02 -.548E+02 -.223E+03   -.432E+02 0.595E+02 0.221E+03   0.209E+01 -.470E+01 0.207E+01   -.795E-05 0.582E-04 0.450E-03
   -.653E+00 -.181E+02 -.267E+03   0.231E+01 0.191E+02 0.272E+03   -.167E+01 -.104E+01 -.497E+01   -.369E-04 0.142E-04 0.156E-03
   -.390E+02 0.708E+01 -.199E+03   0.394E+02 -.725E+01 0.199E+03   -.371E+00 0.183E+00 -.271E-01   0.536E-04 -.800E-04 -.520E-03
   -.546E+02 0.351E+02 -.223E+03   0.587E+02 -.369E+02 0.221E+03   -.402E+01 0.179E+01 0.256E+01   -.414E-04 -.662E-04 0.923E-04
   -.353E+02 0.718E+01 -.269E+03   0.378E+02 -.619E+01 0.274E+03   -.244E+01 -.101E+01 -.465E+01   0.407E-04 -.111E-03 0.117E-03
   0.351E+02 0.554E+02 -.246E+03   -.390E+02 -.594E+02 0.247E+03   0.385E+01 0.393E+01 -.892E+00   0.732E-04 -.729E-04 0.254E-03
 -----------------------------------------------------------------------------------------------
   0.152E+02 0.160E+02 0.247E+02   0.213E-13 0.995E-13 0.512E-12   -.151E+02 -.160E+02 -.240E+02   0.150E-02 -.198E-02 -.164E+00
 
 
 POSITION                                       TOTAL-FORCE (eV/Angst)
 -----------------------------------------------------------------------------------
      4.27999      4.01000      0.00000         0.235225     -0.016466      0.518476
      5.70701      6.01499      0.00000        -0.226925     -0.002949      0.532831
      4.27999      0.00000      0.00000         0.207241      0.017882      0.521463
      5.70701      2.00500      0.00000        -0.236883      0.025461      0.516305
      0.00000      4.01000      0.00000         0.223505      0.001144      0.521184
      1.42700      6.01499      0.00000        -0.252353      0.003114      0.515265
      0.00000      0.00000      0.00000         0.235463     -0.008024      0.476312
      1.42700      2.00500      0.00000        -0.238367     -0.018887      0.505922
      6.42000      4.01000      1.23500        -0.074294     -0.006677     -0.527788
      7.84699      6.01499      1.23500         0.019717     -0.003995     -0.540695
      6.42000      0.00000      1.23500        -0.096829     -0.019399     -0.556327
      7.84699      2.00500      1.23500         0.045743      0.001958     -0.562294
      2.14000      4.01000      1.23500        -0.060107     -0.028716     -0.606102
      3.56700      6.01499      1.23500         0.087586      0.048317     -0.402997
      2.14000      0.00000      1.23500         0.141364      0.021072     -0.549749
      3.56700      2.00500      1.23500         0.018003     -0.016401     -0.360690
      4.28601      4.00156      2.48882        -0.001576      0.004537      0.001049
      5.69269      6.01501      2.49418        -0.001247      0.002095      0.001931
      4.31027      0.00314      2.49144         0.000378     -0.000389      0.004695
      5.69518      2.00189      2.49217        -0.002062      0.000861      0.001778
      0.01476      4.00655      2.50392        -0.005049     -0.004919      0.002919
      1.41009      6.02946      2.48970        -0.000526      0.002112     -0.004299
      0.02576      0.00275      2.47200         0.000216     -0.000345     -0.001372
      1.42907      1.98682      2.48429         0.001243     -0.000113     -0.003575
      6.48225      4.01147      3.61496        -0.006117     -0.001438     -0.003799
      7.79987      6.02462      3.62377        -0.003325      0.004373      0.002445
      6.48165      8.01445      3.61396        -0.000367     -0.009197     -0.000386
      7.79797      1.99601      3.61785         0.004867      0.003502     -0.002183
      2.16476      4.00245      3.60521         0.007422     -0.000560     -0.000449
      3.48541      5.98973      3.62515         0.000568      0.000646      0.004843
      2.13011      7.98930      3.67271        -0.002875      0.000191     -0.007087
      3.50244      2.04191      3.69358        -0.004857     -0.005962      0.004703
      1.84410      0.53488      6.30330        -0.001281      0.008881      0.003909
      3.01164      0.02367      5.47390         0.006746      0.001312      0.006914
      3.61382      6.76967      6.03063        -0.002232      0.000599     -0.003952
      3.99263      1.01356      5.30401        -0.003360     -0.002981     -0.003052
      1.04005      7.80729      6.35399        -0.001332      0.001843     -0.003626
      1.43246      1.46666      5.88776         0.002294     -0.005261      0.003565
      2.19551      0.74136      7.33207        -0.003025     -0.002343     -0.010069
      4.77461      0.53644      4.27691        -0.002288     -0.000428      0.001090
      4.44045      6.36470      5.39271        -0.005193      0.002198      0.005031
      4.11504      6.98160      6.99491        -0.005382      0.001343     -0.000788
      2.84956      5.99830      6.19908         0.000273      0.002010     -0.001348
 -----------------------------------------------------------------------------------
    total drift:                                0.108893      0.004545      0.457315


--------------------------------------------------------------------------------------------------------



  FREE ENERGIE OF THE ION-ELECTRON SYSTEM (eV)
  ---------------------------------------------------
  free  energy   TOTEN  =      -269.31026040 eV

  energy  without entropy=     -269.25242331  energy(sigma->0) =     -269.29580113
 


--------------------------------------------------------------------------------------------------------


    POTLOK:  cpu time    0.46: real time    0.47


--------------------------------------------------------------------------------------------------------


 Dimer: Init Mode:
 Dimer: MODECAR found
 Dimer: -----------------
 Dimer: Itr    1 Rot    0

 Dimer: Central Point
 Dimer: F0      0.033462

 Dimer: Projection
 Dimer: N*F0 -4.494030364654691E-003
 Dimer: F0sq  1.119688922122383E-003
 Dimer: Feffsq   2.019630891843837E-005
 
 stress matrix after NEB project (eV)
    -24.25434     -0.06495     -0.03128
     -0.06495    -23.60130      0.03181
     -0.03128      0.03181     -7.56885
  FORCES: max atom, RMS     0.010772    0.005103
  FORCE total and by dimension    0.033462    0.010069
  Stress total and by dimension   34.678437   24.254338
 OPT: skip step - force has converged


--------------------------------------------------------------------------------------------------------


  
 reached required accuracy - stopping structural energy minimisation
     LOOP+:  cpu time 1960.77: real time 1963.37
    4ORBIT:  cpu time    0.00: real time    0.00

 total amount of memory used by VASP on root node   203283. kBytes
========================================================================

   base      :      30000. kBytes
   nonlr-proj:       7756. kBytes
   fftplans  :       7367. kBytes
   grid      :      34170. kBytes
   one-center:       1337. kBytes
   wavefun   :     122653. kBytes
 
  
  
 General timing and accounting informations for this job:
 ========================================================
  
                  Total CPU time used (sec):     1968.680
                            User time (sec):     1967.048
                          System time (sec):        1.632
                         Elapsed time (sec):     1972.261
  
                   Maximum memory used (kb):      245048.
                   Average memory used (kb):           0.
  
                          Minor page faults:       291245
                          Major page faults:            0
                 Voluntary context switches:          440
