 vasp.5.3.5 31Mar14 (build Jan 31 2018 16:04:57) complex                        
  
 executed on             LinuxIFC date 2018.12.29  17:06:23
 running on    8 total cores
 distrk:  each k-point on    8 cores,    1 groups
 distr:  one band on NCORES_PER_BAND=   1 cores,    8 groups


--------------------------------------------------------------------------------------------------------


 INCAR:
 POTCAR:    PAW_PBE Co 02Aug2007                  
 POTCAR:    PAW_PBE C 08Apr2002                   
 POTCAR:    PAW_PBE O 08Apr2002                   
 POTCAR:    PAW_PBE H 15Jun2001                   

 ----------------------------------------------------------------------------- 
|                                                                             |
|           W    W    AA    RRRRR   N    N  II  N    N   GGGG   !!!           |
|           W    W   A  A   R    R  NN   N  II  NN   N  G    G  !!!           |
|           W    W  A    A  R    R  N N  N  II  N N  N  G       !!!           |
|           W WW W  AAAAAA  RRRRR   N  N N  II  N  N N  G  GGG   !            |
|           WW  WW  A    A  R   R   N   NN  II  N   NN  G    G                |
|           W    W  A    A  R    R  N    N  II  N    N   GGGG   !!!           |
|                                                                             |
|      For optimal performance we recommend to set                            |
|        NCORE= 4 - approx SQRT( number of cores)                             |
|      NCORE specifies how many cores store one orbital (NPAR=cpu/NCORE).     |
|      This setting can  greatly improve the performance of VASP for DFT.     |
|      The default, NPAR=number of cores might be grossly inefficient         |
|      on modern multi-core architectures or massively parallel machines.     |
|      Do your own testing !!!!                                               |
|      Unfortunately you need to use the default for GW and RPA calculations. |
|      (for HF NCORE is supported but not extensively tested yet)             |
|                                                                             |
 ----------------------------------------------------------------------------- 

 POTCAR:    PAW_PBE Co 02Aug2007                  
   VRHFIN =Co: d8 s1                                                            
   LEXCH  = PE                                                                  
   EATOM  =   813.3670 eV,   59.7808 Ry                                         
                                                                                
   TITEL  = PAW_PBE Co 02Aug2007                                                
   LULTRA =        F    use ultrasoft PP ?                                      
   IUNSCR =        1    unscreen: 0-lin 1-nonlin 2-no                           
   RPACOR =    2.000    partial core radius                                     
   POMASS =   58.933; ZVAL   =    9.000    mass and valenz                      
   RCORE  =    2.300    outmost cutoff radius                                   
   RWIGS  =    2.460; RWIGS  =    1.302    wigner-seitz radius (au A)           
   ENMAX  =  267.968; ENMIN  =  200.976 eV                                      
   RCLOC  =    1.203    cutoff for local pot                                    
   LCOR   =        T    correct aug charges                                     
   LPAW   =        T    paw PP                                                  
   EAUG   =  477.818                                                            
   DEXC   =    0.000                                                            
   RMAX   =    2.360    core radius for proj-oper                               
   RAUG   =    1.300    factor for augmentation sphere                          
   RDEP   =    2.393    radius for radial grids                                 
   RDEPT  =    1.864    core radius for aug-charge                              
                                                                                
   Atomic configuration                                                         
    9 entries                                                                   
     n  l   j            E        occ.                                          
     1  0  0.50     -7587.6674   2.0000                                         
     2  0  0.50      -893.6084   2.0000                                         
     2  1  1.50      -764.5805   6.0000                                         
     3  0  0.50       -97.5973   2.0000                                         
     3  1  1.50       -60.9648   6.0000                                         
     3  2  2.50        -4.2382   8.0000                                         
     4  0  0.50        -4.3746   1.0000                                         
     4  1  1.50        -4.0817   0.0000                                         
     4  3  2.50        -1.3606   0.0000                                         
   Description                                                                  
     l       E           TYP  RCUT    TYP  RCUT                                 
     2     -4.2382362     23  2.300                                             
     2     -5.5988188     23  2.300                                             
     0     -4.3745797     23  2.300                                             
     0      5.7660125     23  2.300                                             
     1     -2.7211652     23  2.300                                             
     1     16.9860234     23  2.300                                             
  local pseudopotential read in
  partial core-charges read in
  partial kinetic energy density read in
  atomic valenz-charges read in
  non local Contribution for L=           2  read in
    real space projection operators read in
  non local Contribution for L=           2  read in
    real space projection operators read in
  non local Contribution for L=           0  read in
    real space projection operators read in
  non local Contribution for L=           0  read in
    real space projection operators read in
  non local Contribution for L=           1  read in
    real space projection operators read in
  non local Contribution for L=           1  read in
    real space projection operators read in
    PAW grid and wavefunctions read in
 
   number of l-projection  operators is LMAX  =           6
   number of lm-projection operators is LMMAX =          18
 
 POTCAR:    PAW_PBE C 08Apr2002                   
   VRHFIN =C: s2p2                                                              
   LEXCH  = PE                                                                  
   EATOM  =   147.1560 eV,   10.8157 Ry                                         
                                                                                
   TITEL  = PAW_PBE C 08Apr2002                                                 
   LULTRA =        F    use ultrasoft PP ?                                      
   IUNSCR =        1    unscreen: 0-lin 1-nonlin 2-no                           
   RPACOR =    1.200    partial core radius                                     
   POMASS =   12.011; ZVAL   =    4.000    mass and valenz                      
   RCORE  =    1.500    outmost cutoff radius                                   
   RWIGS  =    1.630; RWIGS  =    0.863    wigner-seitz radius (au A)           
   ENMAX  =  400.000; ENMIN  =  300.000 eV                                      
   ICORE  =        2    local potential                                         
   LCOR   =        T    correct aug charges                                     
   LPAW   =        T    paw PP                                                  
   EAUG   =  644.873                                                            
   DEXC   =    0.000                                                            
   RMAX   =    1.529    core radius for proj-oper                               
   RAUG   =    1.300    factor for augmentation sphere                          
   RDEP   =    1.501    radius for radial grids                                 
   RDEPT  =    1.300    core radius for aug-charge                              
                                                                                
   Atomic configuration                                                         
    4 entries                                                                   
     n  l   j            E        occ.                                          
     1  0  0.50      -273.3789   2.0000                                         
     2  0  0.50       -13.7508   2.0000                                         
     2  1  0.50        -5.2854   2.0000                                         
     3  2  1.50        -5.4423   0.0000                                         
   Description                                                                  
     l       E           TYP  RCUT    TYP  RCUT                                 
     0    -13.7508458     23  1.200                                             
     0     -8.2022199     23  1.200                                             
     1     -5.2854383     23  1.500                                             
     1     34.0145650     23  1.500                                             
     2     -5.4423304      7  1.500                                             
  local pseudopotential read in
  partial core-charges read in
  partial kinetic energy density read in
  atomic valenz-charges read in
  non local Contribution for L=           0  read in
    real space projection operators read in
  non local Contribution for L=           0  read in
    real space projection operators read in
  non local Contribution for L=           1  read in
    real space projection operators read in
  non local Contribution for L=           1  read in
    real space projection operators read in
    PAW grid and wavefunctions read in
 
   number of l-projection  operators is LMAX  =           4
   number of lm-projection operators is LMMAX =           8
 
 POTCAR:    PAW_PBE O 08Apr2002                   
   VRHFIN =O: s2p4                                                              
   LEXCH  = PE                                                                  
   EATOM  =   432.3788 eV,   31.7789 Ry                                         
                                                                                
   TITEL  = PAW_PBE O 08Apr2002                                                 
   LULTRA =        F    use ultrasoft PP ?                                      
   IUNSCR =        1    unscreen: 0-lin 1-nonlin 2-no                           
   RPACOR =    1.200    partial core radius                                     
   POMASS =   16.000; ZVAL   =    6.000    mass and valenz                      
   RCORE  =    1.520    outmost cutoff radius                                   
   RWIGS  =    1.550; RWIGS  =    0.820    wigner-seitz radius (au A)           
   ENMAX  =  400.000; ENMIN  =  300.000 eV                                      
   ICORE  =        2    local potential                                         
   LCOR   =        T    correct aug charges                                     
   LPAW   =        T    paw PP                                                  
   EAUG   =  605.392                                                            
   DEXC   =    0.000                                                            
   RMAX   =    1.553    core radius for proj-oper                               
   RAUG   =    1.300    factor for augmentation sphere                          
   RDEP   =    1.550    radius for radial grids                                 
   RDEPT  =    1.329    core radius for aug-charge                              
                                                                                
   Atomic configuration                                                         
    4 entries                                                                   
     n  l   j            E        occ.                                          
     1  0  0.50      -514.6923   2.0000                                         
     2  0  0.50       -23.9615   2.0000                                         
     2  1  0.50        -9.0305   4.0000                                         
     3  2  1.50        -9.5241   0.0000                                         
   Description                                                                  
     l       E           TYP  RCUT    TYP  RCUT                                 
     0    -23.9615318     23  1.200                                             
     0     -9.5240782     23  1.200                                             
     1     -9.0304911     23  1.520                                             
     1      8.1634956     23  1.520                                             
     2     -9.5240782      7  1.500                                             
  local pseudopotential read in
  partial core-charges read in
  partial kinetic energy density read in
  kinetic energy density of atom read in
  atomic valenz-charges read in
  non local Contribution for L=           0  read in
    real space projection operators read in
  non local Contribution for L=           0  read in
    real space projection operators read in
  non local Contribution for L=           1  read in
    real space projection operators read in
  non local Contribution for L=           1  read in
    real space projection operators read in
    PAW grid and wavefunctions read in
 
   number of l-projection  operators is LMAX  =           4
   number of lm-projection operators is LMMAX =           8
 
 POTCAR:    PAW_PBE H 15Jun2001                   
   VRHFIN =H: ultrasoft test                                                    
   LEXCH  = PE                                                                  
   EATOM  =    12.4884 eV,    0.9179 Ry                                         
                                                                                
   TITEL  = PAW_PBE H 15Jun2001                                                 
   LULTRA =        F    use ultrasoft PP ?                                      
   IUNSCR =        0    unscreen: 0-lin 1-nonlin 2-no                           
   RPACOR =    0.000    partial core radius                                     
   POMASS =    1.000; ZVAL   =    1.000    mass and valenz                      
   RCORE  =    1.100    outmost cutoff radius                                   
   RWIGS  =    0.700; RWIGS  =    0.370    wigner-seitz radius (au A)           
   ENMAX  =  250.000; ENMIN  =  200.000 eV                                      
   RCLOC  =    0.701    cutoff for local pot                                    
   LCOR   =        T    correct aug charges                                     
   LPAW   =        T    paw PP                                                  
   EAUG   =  400.000                                                            
   RMAX   =    1.123    core radius for proj-oper                               
   RAUG   =    1.200    factor for augmentation sphere                          
   RDEP   =    1.112    radius for radial grids                                 
   RDEPT  =    0.926    core radius for aug-charge                              
                                                                                
   Atomic configuration                                                         
    2 entries                                                                   
     n  l   j            E        occ.                                          
     1  0  0.50        -6.4927   1.0000                                         
     2  1  0.50        -3.4015   0.0000                                         
   Description                                                                  
     l       E           TYP  RCUT    TYP  RCUT                                 
     0     -6.4927494     23  1.100                                             
     0      6.8029130     23  1.100                                             
     1     -4.0817478     23  1.100                                             
  local pseudopotential read in
  atomic valenz-charges read in
  non local Contribution for L=           0  read in
    real space projection operators read in
  non local Contribution for L=           0  read in
    real space projection operators read in
  non local Contribution for L=           1  read in
    real space projection operators read in
    PAW grid and wavefunctions read in
 
   number of l-projection  operators is LMAX  =           3
   number of lm-projection operators is LMMAX =           5
 
 Optimization of the real space projectors (new method)

 maximal supplied QI-value         = 16.25
 optimisation between [QCUT,QGAM] = [ 10.24, 20.48] = [ 29.35,117.42] Ry 
 Optimized for a Real-space Cutoff    1.34 Angstroem

   l    n(q)    QCUT    max X(q) W(low)/X(q) W(high)/X(q)  e(spline) 
   2      7    10.239    65.824    0.41E-03    0.10E-02    0.11E-06
   2      7    10.239    61.429    0.41E-03    0.10E-02    0.11E-06
   0      8    10.239    56.174    0.42E-03    0.17E-03    0.96E-07
   0      8    10.239    31.263    0.38E-03    0.16E-03    0.87E-07
   1      8    10.239    19.828    0.20E-03    0.56E-03    0.13E-06
   1      8    10.239    15.139    0.15E-03    0.46E-03    0.11E-06
 Optimization of the real space projectors (new method)

 maximal supplied QI-value         = 25.13
 optimisation between [QCUT,QGAM] = [ 10.05, 20.36] = [ 28.30,116.06] Ry 
 Optimized for a Real-space Cutoff    1.30 Angstroem

   l    n(q)    QCUT    max X(q) W(low)/X(q) W(high)/X(q)  e(spline) 
   0      8    10.053   115.676    0.49E-03    0.72E-03    0.18E-06
   0      8    10.053    87.132    0.49E-03    0.71E-03    0.18E-06
   1      7    10.053     4.429    0.32E-03    0.31E-03    0.18E-06
   1      7    10.053     2.733    0.23E-03    0.19E-03    0.20E-06
 Optimization of the real space projectors (new method)

 maximal supplied QI-value         = 24.76
 optimisation between [QCUT,QGAM] = [ 10.15, 20.30] = [ 28.85,115.39] Ry 
 Optimized for a Real-space Cutoff    1.38 Angstroem

   l    n(q)    QCUT    max X(q) W(low)/X(q) W(high)/X(q)  e(spline) 
   0      8    10.150    20.381    0.22E-03    0.32E-03    0.29E-06
   0      8    10.150    15.268    0.23E-03    0.35E-03    0.30E-06
   1      8    10.150     5.964    0.46E-03    0.53E-03    0.21E-06
   1      8    10.150     5.382    0.38E-03    0.45E-03    0.19E-06
 Optimization of the real space projectors (new method)

 maximal supplied QI-value         = 34.20
 optimisation between [QCUT,QGAM] = [  9.92, 20.18] = [ 27.55,114.04] Ry 
 Optimized for a Real-space Cutoff    1.26 Angstroem

   l    n(q)    QCUT    max X(q) W(low)/X(q) W(high)/X(q)  e(spline) 
   0      8     9.919    19.460    0.50E-03    0.23E-03    0.29E-06
   0      8     9.919    12.209    0.48E-03    0.23E-03    0.28E-06
   1      7     9.919     4.655    0.17E-03    0.75E-03    0.30E-06
  PAW_PBE Co 02Aug2007                  :
 energy of atom  1       EATOM= -813.3670
 kinetic energy error for atom=    0.0093 (will be added to EATOM!!)
  PAW_PBE C 08Apr2002                   :
 energy of atom  2       EATOM= -147.1560
 kinetic energy error for atom=    0.0288 (will be added to EATOM!!)
  PAW_PBE O 08Apr2002                   :
 energy of atom  3       EATOM= -432.3788
 kinetic energy error for atom=    0.1156 (will be added to EATOM!!)
  PAW_PBE H 15Jun2001                   :
 energy of atom  4       EATOM=  -12.4884
 kinetic energy error for atom=    0.0098 (will be added to EATOM!!)
 
 
 POSCAR: Co C O H                                
  positions in direct lattice
  velocities in cartesian coordinates
 exchange correlation table for  LEXCH =        8
   RHO(1)=    0.500       N(1)  =     2000
   RHO(2)=  100.500       N(2)  =     4000

 VTST: version 3.1, (03/28/14)

 CHAIN: initializing optimizer
 
 OPT: Using VASP Conjugate-Gradient optimizer
 CHAIN: Read ICHAIN            0
 
 POSCAR: Co C O H                                
  positions in direct lattice
  velocities in cartesian coordinates
 


--------------------------------------------------------------------------------------------------------


 ion  position               nearest neighbor table
   1  0.222  0.111  0.000-   4 2.47   5 2.47  13 2.47   3 2.47   2 2.47  10 2.47  11 2.47   9 2.47
                             8 2.47
   2  0.556  0.111  0.000-   5 2.47   6 2.47  14 2.47   3 2.47   1 2.47  12 2.47  11 2.47   9 2.47
                             7 2.47
   3  0.889  0.111  0.000-   4 2.47   6 2.47  15 2.47   1 2.47   2 2.47  10 2.47  12 2.47   8 2.47
                             7 2.47
   4  0.222  0.444  0.000-   9 2.47   7 2.47   3 2.47   1 2.47   6 2.47   5 2.47  16 2.47  15 2.47
                            13 2.47
   5  0.556  0.444  0.000-   7 2.47   8 2.47   1 2.47   2 2.47   4 2.47   6 2.47  17 2.47  14 2.47
                            13 2.47
   6  0.889  0.444  0.000-   9 2.47   8 2.47   2 2.47   3 2.47   4 2.47   5 2.47  18 2.47  15 2.47
                            14 2.47
   7  0.556  0.778  0.000-   5 2.47   4 2.47  16 2.47  17 2.47   8 2.47   9 2.47  12 2.47   3 2.47
                             2 2.47
   8  0.889  0.778  0.000-   5 2.47   6 2.47  17 2.47  18 2.47   7 2.47   9 2.47  10 2.47   3 2.47
                             1 2.47
   9  0.222  0.778  0.000-   4 2.47   6 2.47  18 2.47  16 2.47   7 2.47   8 2.47  11 2.47   2 2.47
                             1 2.47
  10  0.000  0.000  0.082-  13 2.47  15 2.47  11 2.47  12 2.47  17 2.47  18 2.47   1 2.47   3 2.47
                             8 2.47  21 2.49  26 2.49  19 2.50
  11  0.333  0.000  0.082-  14 2.47  13 2.47  12 2.47  10 2.47  16 2.47  18 2.47   2 2.47   1 2.47
                             9 2.47  20 2.47  27 2.48  19 2.52
  12  0.667  0.000  0.082-  14 2.47  15 2.47  11 2.47  10 2.47  16 2.47  17 2.47   2 2.47   3 2.47
                             7 2.47  20 2.47  25 2.49  21 2.50
  13  0.333  0.333  0.082-  10 2.47  11 2.47   1 2.47  14 2.47  15 2.47  16 2.47  17 2.47   5 2.47
                             4 2.47  23 2.47  22 2.49  19 2.51
  14  0.667  0.333  0.082-  11 2.47  12 2.47   2 2.47  13 2.47  15 2.47  17 2.47  18 2.47   5 2.47
                             6 2.47  24 2.47  20 2.48  23 2.49
  15  1.000  0.333  0.082-  10 2.47  12 2.47   3 2.47  13 2.47  14 2.47  18 2.47  16 2.47   4 2.47
                             6 2.47  24 2.48  22 2.50  21 2.50
  16  0.333  0.667  0.082-   7 2.47   9 2.47  17 2.47  18 2.47  13 2.47  15 2.47   4 2.47  12 2.47
                            11 2.47  27 2.47  25 2.48  22 2.50
  17  0.667  0.667  0.082-   7 2.47   8 2.47  16 2.47  18 2.47  13 2.47  14 2.47   5 2.47  10 2.47
                            12 2.47  25 2.48  26 2.49  23 2.50
  18  1.000  0.667  0.082-  27 2.47   9 2.47   8 2.47  17 2.47  16 2.47  15 2.47  14 2.47   6 2.47
                            11 2.47  10 2.47  24 2.48  26 2.50
  19  0.220  0.112  0.165-  29 2.38  22 2.44  21 2.44  28 2.45  23 2.45  26 2.46  31 2.48  27 2.49
                            20 2.49  10 2.50  13 2.51  11 2.52
  20  0.555  0.111  0.164-  29 2.38  32 2.40  30 2.40  24 2.46  23 2.47  25 2.47  12 2.47  11 2.47
                            21 2.48  14 2.48  27 2.48  19 2.49
  21  0.889  0.109  0.165-  33 2.39  30 2.40  19 2.44  26 2.44  28 2.46  22 2.47  25 2.47  20 2.48
                            24 2.48  10 2.49  12 2.50  15 2.50
  22  0.222  0.442  0.165-  33 2.39  34 2.40  19 2.44  23 2.44  21 2.47  25 2.47  27 2.48  13 2.49
                            24 2.49  31 2.49  15 2.50  16 2.50
  23  0.552  0.442  0.164-  32 2.39  35 2.39  22 2.44  19 2.45  20 2.47  25 2.47  13 2.47  24 2.48
                            14 2.49  26 2.50  17 2.50  31 2.51
  24  0.887  0.443  0.164-  33 2.38  36 2.39  32 2.40  20 2.46  27 2.47  14 2.47  15 2.48  23 2.48
                            21 2.48  18 2.48  26 2.48  22 2.49
  25  0.555  0.776  0.164-  30 2.40  34 2.40  35 2.40  26 2.47  22 2.47  23 2.47  21 2.47  27 2.47
                            20 2.47  16 2.48  17 2.48  12 2.49
  26  0.889  0.779  0.165-  36 2.39  35 2.40  21 2.44  28 2.45  19 2.46  25 2.47  27 2.47  24 2.48
                            10 2.49  17 2.49  23 2.50  18 2.50
  27  0.221  0.776  0.164-  29 2.38  36 2.40  34 2.41  24 2.47  18 2.47  25 2.47  26 2.47  16 2.47
                            20 2.48  11 2.48  22 2.48  19 2.49
  28  0.998  0.997  0.246-  40 2.14  26 2.45  19 2.45  21 2.46  31 2.46  36 2.47  30 2.48  35 2.48
                            29 2.50  33 2.51
  29  0.335  0.997  0.241-  27 2.38  20 2.38  19 2.38  30 2.44  34 2.44  32 2.46  36 2.48  31 2.50
                            28 2.50
  30  0.664  0.998  0.242-  21 2.40  25 2.40  20 2.40  29 2.44  34 2.46  32 2.47  28 2.48  35 2.48
                            33 2.48
  31  0.329  0.331  0.248-  37 2.02  28 2.46  35 2.47  19 2.48  34 2.48  32 2.48  33 2.48  22 2.49
                            29 2.50  23 2.51
  32  0.664  0.331  0.242-  23 2.39  20 2.40  24 2.40  33 2.46  35 2.46  29 2.46  30 2.47  36 2.47
                            31 2.48
  33  0.997  0.335  0.242-  24 2.38  22 2.39  21 2.39  36 2.44  32 2.46  34 2.47  30 2.48  31 2.48
                            28 2.51
  34  0.333  0.667  0.242-  25 2.40  22 2.40  27 2.41  29 2.44  30 2.46  35 2.46  36 2.47  33 2.47
                            31 2.48
  35  0.662  0.663  0.242-  23 2.39  25 2.40  26 2.40  34 2.46  32 2.46  31 2.47  30 2.48  36 2.48
                            28 2.48
  36  0.998  0.665  0.242-  26 2.39  24 2.39  27 2.40  33 2.44  34 2.47  28 2.47  32 2.47  29 2.48
                            35 2.48
  37  0.255  0.267  0.327-  40 1.48  39 1.52  38 1.52  31 2.02
  38  0.433  0.278  0.360-  41 1.10  43 1.10  42 1.11  37 1.52
  39  0.173  0.399  0.353-  44 1.10  45 1.11  46 1.11  37 1.52
  40  0.076  0.051  0.330-  47 0.98  37 1.48  28 2.14
  41  0.566  0.438  0.359-  38 1.10
  42  0.383  0.235  0.403-  38 1.11
  43  0.486  0.174  0.344-  38 1.10
  44  0.291  0.565  0.350-  39 1.10
  45  0.134  0.355  0.396-  39 1.11
  46  0.030  0.376  0.333-  39 1.11
  47  0.132  0.956  0.333-  40 0.98
 
  LATTYP: Found a hexagonal cell.
 ALAT       =     7.4100015225
 C/A-ratio  =     3.3333326485
  
  Lattice vectors:
  
 A1 = (   7.4100000000,   0.0000000000,   0.0000000000)
 A2 = (  -3.7050000000,   6.4172500001,   0.0000000000)
 A3 = (   0.0000000000,   0.0000000000,  24.7000000000)


Analysis of symmetry for initial positions (statically):
=====================================================================
 Subroutine PRICEL returns:
 Original cell was already a primitive cell.
 

 Routine SETGRP: Setting up the symmetry group for a 
 hexagonal supercell.


 Subroutine GETGRP returns: Found  1 space group operations
 (whereof  1 operations were pure point group operations)
 out of a pool of 24 trial point group operations.


The static configuration has the point symmetry C_1 .


Analysis of symmetry for dynamics (positions and initial velocities):
=====================================================================
 Subroutine PRICEL returns:
 Original cell was already a primitive cell.
 

 Routine SETGRP: Setting up the symmetry group for a 
 hexagonal supercell.


 Subroutine GETGRP returns: Found  1 space group operations
 (whereof  1 operations were pure point group operations)
 out of a pool of 24 trial point group operations.


The dynamic configuration has the point symmetry C_1 .


Analysis of constrained symmetry for selective dynamics:
=====================================================================
 Subroutine PRICEL returns:
 Original cell was already a primitive cell.
 

 Routine SETGRP: Setting up the symmetry group for a 
 hexagonal supercell.


 Subroutine GETGRP returns: Found  1 space group operations
 (whereof  1 operations were pure point group operations)
 out of a pool of 24 trial point group operations.


The constrained configuration has the point symmetry C_1 .


Analysis of magnetic symmetry:
=====================================================================
 Subroutine PRICEL returns:
 Original cell was already a primitive cell.
 

 Subroutine MAGSYM returns: Found  1 space group operations
 (whereof  1 operations were pure point group operations)
 out of a pool of  1 trial space group operations
 (whereof  1 operations were pure point group operations)
 and found also     1 'primitive' translations


The magnetic configuration has the point symmetry C_1 .
 
 
 KPOINTS:  Automatic mesh                         

Automatic generation of k-mesh.
Space group operators:
 irot       det(A)        alpha          n_x          n_y          n_z        tau_x        tau_y        tau_z
    1     1.000000     0.000000     1.000000     0.000000     0.000000     0.000000     0.000000     0.000000
 
 Subroutine IBZKPT returns following result:
 ===========================================
 
 Found      5 irreducible k-points:
 
 Following reciprocal coordinates:
            Coordinates               Weight
  0.000000  0.000000  0.000000      1.000000
  0.333333  0.000000  0.000000      2.000000
  0.000000  0.333333  0.000000      2.000000
  0.333333  0.333333  0.000000      2.000000
 -0.333333  0.333333  0.000000      2.000000
 
 Following cartesian coordinates:
            Coordinates               Weight
  0.000000  0.000000  0.000000      1.000000
  0.111111  0.064150  0.000000      2.000000
  0.000000  0.128300  0.000000      2.000000
  0.111111  0.192450  0.000000      2.000000
 -0.111111  0.064150  0.000000      2.000000
 


--------------------------------------------------------------------------------------------------------




 Dimension of arrays:
   k-points           NKPTS =      5   k-points in BZ     NKDIM =      5   number of bands    NBANDS=    240
   number of dos      NEDOS =    301   number of ions     NIONS =     47
   non local maximal  LDIM  =      6   non local SUM 2l+1 LMDIM =     18
   total plane-waves  NPLWV = 163296
   max r-space proj   IRMAX =   1582   max aug-charges    IRDMAX=   5682
   dimension x,y,z NGX =    36 NGY =   36 NGZ =  126
   dimension x,y,z NGXF=    72 NGYF=   72 NGZF=  252
   support grid    NGXF=    72 NGYF=   72 NGZF=  252
   ions per type =              36   3   1   7
 NGX,Y,Z   is equivalent  to a cutoff of   8.08,  8.08,  8.48 a.u.
 NGXF,Y,Z  is equivalent  to a cutoff of  16.15, 16.15, 16.96 a.u.


 I would recommend the setting:
   dimension x,y,z NGX =    36 NGY =   36 NGZ =  121
 SYSTEM =  unknown system                          
 POSCAR =  Co C O H                                

 Startparameter for this run:
   NWRITE =      2    write-flag & timer
   PREC   = normal    normal or accurate (medium, high low for compatibility)
   ISTART =      0    job   : 0-new  1-cont  2-samecut
   ICHARG =      2    charge: 1-file 2-atom 10-const
   ISPIN  =      2    spin polarized calculation?
   LNONCOLLINEAR =      F non collinear calculations
   LSORBIT =      F    spin-orbit coupling
   INIWAV =      1    electr: 0-lowe 1-rand  2-diag
   LASPH  =      F    aspherical Exc in radial PAW
   METAGGA=      F    non-selfconsistent MetaGGA calc.
   LSOL =      F    Solvation

 Electronic Relaxation 1
   ENCUT  =  400.0 eV  29.40 Ry    5.42 a.u.  12.08 12.08 40.28*2*pi/ulx,y,z
   ENINI  =  400.0     initial cutoff
   ENAUG  =  644.9 eV  augmentation charge cutoff
   NELM   =     60;   NELMIN=  2; NELMDL= -5     # of ELM steps 
   EDIFF  = 0.1E-05   stopping-criterion for ELM
   LREAL  =      T    real-space projection
   NLSPLINE    = F    spline interpolate recip. space projectors
   LCOMPAT=      F    compatible to vasp.4.4
   GGA_COMPAT  = T    GGA compatible to vasp.4.4-vasp.4.6
   LMAXPAW     = -100 max onsite density
   LMAXMIX     =    2 max onsite mixed and CHGCAR
   VOSKOWN=      0    Vosko Wilk Nusair interpolation
   ROPT   =   -0.00050  -0.00050  -0.00050  -0.00050
 Ionic relaxation
   EDIFFG = -.1E-01   stopping-criterion for IOM
   NSW    =    500    number of steps for IOM
   NBLOCK =      1;   KBLOCK =    500    inner block; outer block 
   IBRION =      2    ionic relax: 0-MD 1-quasi-New 2-CG
   NFREE  =      1    steps in history (QN), initial steepest desc. (CG)
   ISIF   =      2    stress and relaxation
   IWAVPR =     11    prediction:  0-non 1-charg 2-wave 3-comb
   ISYM   =      2    0-nonsym 1-usesym 2-fastsym
   LCORR  =      T    Harris-Foulkes like correction to forces

   POTIM  = 0.5000    time-step for ionic-motion
   TEIN   =    0.0    initial temperature
   TEBEG  =    0.0;   TEEND  =   0.0 temperature during run
   SMASS  =  -3.00    Nose mass-parameter (am)
   estimated Nose-frequenzy (Omega)   =  0.10E-29 period in steps =****** mass=  -0.125E-26a.u.
   SCALEE = 1.0000    scale energy and forces
   NPACO  =    256;   APACO  = 16.0  distance and # of slots for P.C.
   PSTRESS=    0.0 pullay stress

  Mass of Ions in am
   POMASS =  58.93 12.01 16.00  1.00
  Ionic Valenz
   ZVAL   =   9.00  4.00  6.00  1.00
  Atomic Wigner-Seitz radii
   RWIGS  =  -1.00 -1.00 -1.00 -1.00
  virtual crystal weights 
   VCA    =   1.00  1.00  1.00  1.00
   NELECT =     349.0000    total number of electrons
   NUPDOWN=      -1.0000    fix difference up-down

 DOS related values:
   EMIN   =  10.00;   EMAX   =-10.00  energy-range for DOS
   EFERMI =   0.00
   ISMEAR =     2;   SIGMA  =   0.20  broadening in eV -4-tet -1-fermi 0-gaus

 Electronic relaxation 2 (details)
   IALGO  =     38    algorithm
   LDIAG  =      T    sub-space diagonalisation (order eigenvalues)
   LSUBROT=      F    optimize rotation matrix (better conditioning)
   TURBO    =      0    0=normal 1=particle mesh
   IRESTART =      0    0=no restart 2=restart with 2 vectors
   NREBOOT  =      0    no. of reboots
   NMIN     =      0    reboot dimension
   EREF     =   0.00    reference energy to select bands
   IMIX   =      4    mixing-type and parameters
     AMIX     =   0.40;   BMIX     =  1.00
     AMIX_MAG =   1.60;   BMIX_MAG =  1.00
     AMIN     =   0.10
     WC   =   100.;   INIMIX=   1;  MIXPRE=   1;  MAXMIX= -45

 Intra band minimization:
   WEIMIN = 0.0010     energy-eigenvalue tresh-hold
   EBREAK =  0.10E-08  absolut break condition
   DEPER  =   0.30     relativ break condition  

   TIME   =   0.40     timestep for ELM

  volume/ion in A,a.u.               =      24.99       168.64
  Fermi-wavevector in a.u.,A,eV,Ry     =   1.092434  2.064401 16.237361  1.193412
  Thomas-Fermi vector in A             =   2.228700
 
 Write flags
   LWAVE  =      F    write WAVECAR
   LCHARG =      F    write CHGCAR
   LVTOT  =      F    write LOCPOT, total local potential
   LVHAR  =      F    write LOCPOT, Hartree potential only
   LELF   =      F    write electronic localiz. function (ELF)
   LORBIT =      0    0 simple, 1 ext, 2 COOP (PROOUT)


 Dipole corrections
   LMONO  =      F    monopole corrections only (constant potential shift)
   LDIPOL =      F    correct potential (dipole corrections)
   IDIPOL =      3    1-x, 2-y, 3-z, 4-all directions 
   EPSILON=  1.0000000 bulk dielectric constant

 Exchange correlation treatment:
   GGA     =    PE    GGA type
   LEXCH   =     8    internal setting for exchange type
   VOSKOWN=      0    Vosko Wilk Nusair interpolation
   LHFCALC =     F    Hartree Fock is set to
   LHFONE  =     F    Hartree Fock one center treatment
   AEXX    =    0.0000 exact exchange contribution

 Linear response parameters
   LEPSILON=     F    determine dielectric tensor
   LRPA    =     F    only Hartree local field effects (RPA)
   LNABLA  =     F    use nabla operator in PAW spheres
   LVEL    =     F    velocity operator in full k-point grid
   LINTERFAST=   F  fast interpolation
   KINTER  =     0    interpolate to denser k-point grid
   CSHIFT  =0.1000    complex shift for real part using Kramers Kronig
   OMEGAMAX=  -1.0    maximum frequency
   DEG_THRESHOLD= 0.2000000E-02 threshold for treating states as degnerate
   RTIME   =    0.100 relaxation time in fs

 Orbital magnetization related:
   ORBITALMAG=     F  switch on orbital magnetization
   LCHIMAG   =     F  perturbation theory with respect to B field
   DQ        =  0.001000  dq finite difference perturbation B field



--------------------------------------------------------------------------------------------------------


 conjugate gradient relaxation of ions
   using selective dynamics as specified on POSCAR
 charge density and potential will be updated during run
 spin polarized calculation
 Variant of blocked Davidson
 Davidson routine will perform the subspace rotation
 perform sub-space diagonalisation
    after iterative eigenvector-optimisation
 modified Broyden-mixing scheme, WC =      100.0
 initial mixing is a Kerker type mixing with AMIX =  0.4000 and BMIX =      1.0000
 Hartree-type preconditioning will be used
 using additional bands           65
 real space projection scheme for non local part
 use partial core corrections
 calculate Harris-corrections to forces 
   (improved forces if not selfconsistent)
 use gradient corrections 
 use of overlap-Matrix (Vanderbilt PP)
 Methfessel and Paxton  Order N= 2 SIGMA  =   0.20


--------------------------------------------------------------------------------------------------------


  energy-cutoff  :      400.00
  volume of cell :     1174.53
      direct lattice vectors                 reciprocal lattice vectors
     7.410000000  0.000000000  0.000000000     0.134952767  0.077914995  0.000000000
    -3.705000000  6.417250000  0.000000000     0.000000000  0.155829989  0.000000000
     0.000000000  0.000000000 24.700000000     0.000000000  0.000000000  0.040485830

  length of vectors
     7.410000000  7.410001522 24.700000000     0.155830021  0.155829989  0.040485830


 
 k-points in units of 2pi/SCALE and weight:  Automatic mesh                         
   0.00000000  0.00000000  0.00000000       0.111
   0.11111111  0.06415001  0.00000000       0.222
   0.00000000  0.12830002  0.00000000       0.222
   0.11111111  0.19245004  0.00000000       0.222
  -0.11111111  0.06415001  0.00000000       0.222
 
 k-points in reciprocal lattice and weights:  Automatic mesh                         
   0.00000000  0.00000000  0.00000000       0.111
   0.33333333  0.00000000  0.00000000       0.222
   0.00000000  0.33333333  0.00000000       0.222
   0.33333333  0.33333333  0.00000000       0.222
  -0.33333333  0.33333333  0.00000000       0.222
 
 position of ions in fractional coordinates (direct lattice) 
   0.22222237  0.11111141  0.00000000
   0.55555571  0.11111141  0.00000000
   0.88888904  0.11111141  0.00000000
   0.22222206  0.44444412  0.00000000
   0.55555539  0.44444412  0.00000000
   0.88888872  0.44444412  0.00000000
   0.55555431  0.77777528  0.00000000
   0.88888764  0.77777528  0.00000000
   0.22222097  0.77777528  0.00000000
   0.00000000  0.00000000  0.08164980
   0.33333333  0.00000000  0.08164980
   0.66666667  0.00000000  0.08164980
   0.33333302  0.33333270  0.08164980
   0.66666635  0.33333270  0.08164980
   0.99999968  0.33333270  0.08164980
   0.33333309  0.66666617  0.08164980
   0.66666642  0.66666617  0.08164980
   0.99999975  0.66666617  0.08164980
   0.21976780  0.11175009  0.16520440
   0.55548227  0.11064246  0.16351556
   0.88884783  0.10912131  0.16463805
   0.22242331  0.44200393  0.16455316
   0.55197891  0.44182181  0.16414133
   0.88742043  0.44322240  0.16372162
   0.55454269  0.77646915  0.16403197
   0.88851070  0.77905535  0.16455873
   0.22083214  0.77610073  0.16354048
   0.99761944  0.99746566  0.24595976
   0.33470648  0.99674302  0.24081834
   0.66408614  0.99821932  0.24207322
   0.32929640  0.33067423  0.24792495
   0.66395395  0.33148849  0.24186766
   0.99713517  0.33518706  0.24176995
   0.33283737  0.66669580  0.24215339
   0.66242721  0.66265270  0.24220109
   0.99822586  0.66451163  0.24167567
   0.25454122  0.26685012  0.32704338
   0.43263744  0.27814932  0.36011225
   0.17341448  0.39862096  0.35260967
   0.07566628  0.05104696  0.33000353
   0.56642277  0.43751957  0.35936767
   0.38277044  0.23460730  0.40269685
   0.48619943  0.17408833  0.34398057
   0.29143880  0.56488539  0.35004388
   0.13431201  0.35502388  0.39568401
   0.02961677  0.37637824  0.33266486
   0.13150854  0.95579813  0.33322208
 
 position of ions in cartesian coordinates  (Angst):
   1.23500000  0.71302972  0.00000000
   3.70500000  0.71302972  0.00000000
   6.17500000  0.71302972  0.00000000
  -0.00000000  2.85210900  0.00000000
   2.47000000  2.85210900  0.00000000
   4.94000000  2.85210900  0.00000000
   1.23500000  4.99117840  0.00000000
   3.70500000  4.99117840  0.00000000
  -1.23500000  4.99117840  0.00000000
   0.00000000  0.00000000  2.01675006
   2.47000000  0.00000000  2.01675006
   4.94000000  0.00000000  2.01675006
   1.23500000  2.13907928  2.01675006
   3.70500000  2.13907928  2.01675006
   6.17500000  2.13907928  2.01675006
   0.00000000  4.27816350  2.01675006
   2.47000000  4.27816350  2.01675006
   4.94000000  4.27816350  2.01675006
   1.21444528  0.71712828  4.08054861
   3.70619335  0.71002030  4.03883437
   6.18206798  0.70025874  4.06655983
   0.01053216  2.83644974  4.06446301
   2.45321387  2.83528103  4.05429087
   4.93364639  2.84426892  4.04392390
   1.23234312  4.98279668  4.05158971
   3.69746423  4.99939296  4.06460072
  -1.23908706  4.98043238  4.03944977
   3.69674979  6.40098653  6.07520608
  -1.21275784  6.39634916  5.94821298
   1.22247572  6.40582296  5.97920863
   1.21493830  2.12201923  6.12374634
   3.69173394  2.12724449  5.97413119
   6.14690357  2.15097913  5.97171787
  -0.00378305  4.27835363  5.98118870
   2.45345737  4.25240803  5.98236685
   4.93483803  4.26433725  5.96938897
   0.89747075  1.71244393  8.07797155
   2.17530016  1.78495374  8.89477252
  -0.19188934  2.55805036  8.70945884
   0.37155812  0.32758110  8.15108720
   2.57618272  2.80767249  8.87638141
   1.96710887  1.50553372  9.94661215
   2.95774049  1.11716834  8.49632009
   0.06666111  3.62501078  8.64608389
  -0.32011151  2.27827698  9.77339499
  -1.17502107  2.41531324  8.21682206
  -2.56675377  6.13359552  8.23058529
 


--------------------------------------------------------------------------------------------------------


 k-point  1 :   0.0000 0.0000 0.0000  plane waves:   21237
 k-point  2 :   0.3333 0.0000 0.0000  plane waves:   21309
 k-point  3 :   0.0000 0.3333 0.0000  plane waves:   21309
 k-point  4 :   0.3333 0.3333 0.0000  plane waves:   21354
 k-point  5 :  -0.3333 0.3333 0.0000  plane waves:   21309

 maximum and minimum number of plane-waves per node :     21354    21237

 maximum number of plane-waves:     21354
 maximum index in each direction: 
   IXMAX=   12   IYMAX=   12   IZMAX=   40
   IXMIN=  -12   IYMIN=  -12   IZMIN=  -40

 WARNING: aliasing errors must be expected set NGX to  50 to avoid them
 WARNING: aliasing errors must be expected set NGY to  50 to avoid them
 WARNING: aliasing errors must be expected set NGZ to 162 to avoid them
 aliasing errors are usually negligible using standard VASP settings
 and one can safely disregard these warnings

 serial   3D FFT for wavefunctions
 parallel 3D FFT for charge:
    minimum data exchange during FFTs selected (reduces bandwidth)


 total amount of memory used by VASP on root node   182247. kBytes
========================================================================

   base      :      30000. kBytes
   nonlr-proj:       9714. kBytes
   fftplans  :       6203. kBytes
   grid      :      28885. kBytes
   one-center:       1461. kBytes
   wavefun   :     105984. kBytes
 
     INWAV:  cpu time    0.00: real time    0.00
 Broyden mixing: mesh for mixing (old mesh)
   NGX = 25   NGY = 25   NGZ = 81
  (NGX  = 72   NGY  = 72   NGZ  =252)
  gives a total of  50625 points

 initial charge density was supplied:
 charge density of overlapping atoms calculated
 number of electron     349.0000000 magnetization      58.6800000
 keeping initial charge density in first step


--------------------------------------------------------------------------------------------------------


 Maximum index for non-local projection operator         1485
 Maximum index for augmentation-charges          722 (set IRDMAX)


--------------------------------------------------------------------------------------------------------


 First call to EWALD:  gamma=   0.168
 Maximum number of real-space cells 4x 4x 1
 Maximum number of reciprocal cells 2x 2x 6

 FEWALD executed in parallel
    FEWALD:  cpu time    0.00: real time    0.00


----------------------------------------- Iteration    1(   1)  ---------------------------------------


    POTLOK:  cpu time    0.39: real time    0.39
    SETDIJ:  cpu time    0.06: real time    0.06
     EDDAV:  cpu time   34.00: real time   34.03
       DOS:  cpu time    0.00: real time    0.00
    --------------------------------------------
      LOOP:  cpu time   34.45: real time   34.48

 eigenvalue-minimisations  :  4800
 total energy-change (2. order) : 0.2655417E+04  (-0.1283887E+05)
 number of electron     349.0000000 magnetization      58.6800000
 augmentation part      349.0000000 magnetization      58.6800000

 Free energy of the ion-electron system (eV)
  ---------------------------------------------------
  alpha Z        PSCENC =       533.70227597
  Ewald energy   TEWEN  =    168154.31775405
  -Hartree energ DENC   =   -197263.33302837
  -exchange      EXHF   =         0.00000000
  -V(xc)+E(xc)   XCENC  =       690.52184149
  PAW double counting   =     26632.70730083   -28544.49199737
  entropy T*S    EENTRO =        -0.00992321
  eigenvalues    EBANDS =      2210.12888365
  atomic energy  EATOM  =     30241.87372392
  Solvation contrib.  Ediel  =         0.00000000
  ---------------------------------------------------
  free energy    TOTEN  =      2655.41683095 eV

  energy without entropy =     2655.42675416  energy(sigma->0) =     2655.41931176


--------------------------------------------------------------------------------------------------------




----------------------------------------- Iteration    1(   2)  ---------------------------------------


     EDDAV:  cpu time   33.72: real time   33.72
       DOS:  cpu time    0.00: real time    0.00
    --------------------------------------------
      LOOP:  cpu time   33.72: real time   33.72

 eigenvalue-minimisations  :  4800
 total energy-change (2. order) :-0.2666292E+04  (-0.2496994E+04)
 number of electron     349.0000000 magnetization      58.6800000
 augmentation part      349.0000000 magnetization      58.6800000

 Free energy of the ion-electron system (eV)
  ---------------------------------------------------
  alpha Z        PSCENC =       533.70227597
  Ewald energy   TEWEN  =    168154.31775405
  -Hartree energ DENC   =   -197263.33302837
  -exchange      EXHF   =         0.00000000
  -V(xc)+E(xc)   XCENC  =       690.52184149
  PAW double counting   =     26632.70730083   -28544.49199737
  entropy T*S    EENTRO =         0.00020435
  eigenvalues    EBANDS =      -456.17342951
  atomic energy  EATOM  =     30241.87372392
  Solvation contrib.  Ediel  =         0.00000000
  ---------------------------------------------------
  free energy    TOTEN  =       -10.87535465 eV

  energy without entropy =      -10.87555900  energy(sigma->0) =      -10.87540574


--------------------------------------------------------------------------------------------------------




----------------------------------------- Iteration    1(   3)  ---------------------------------------


     EDDAV:  cpu time   41.02: real time   41.02
       DOS:  cpu time    0.00: real time    0.00
    --------------------------------------------
      LOOP:  cpu time   41.02: real time   41.02

 eigenvalue-minimisations  :  6184
 total energy-change (2. order) :-0.3055278E+03  (-0.2675646E+03)
 number of electron     349.0000000 magnetization      58.6800000
 augmentation part      349.0000000 magnetization      58.6800000

 Free energy of the ion-electron system (eV)
  ---------------------------------------------------
  alpha Z        PSCENC =       533.70227597
  Ewald energy   TEWEN  =    168154.31775405
  -Hartree energ DENC   =   -197263.33302837
  -exchange      EXHF   =         0.00000000
  -V(xc)+E(xc)   XCENC  =       690.52184149
  PAW double counting   =     26632.70730083   -28544.49199737
  entropy T*S    EENTRO =         0.12599787
  eigenvalues    EBANDS =      -761.82697359
  atomic energy  EATOM  =     30241.87372392
  Solvation contrib.  Ediel  =         0.00000000
  ---------------------------------------------------
  free energy    TOTEN  =      -316.40310521 eV

  energy without entropy =     -316.52910308  energy(sigma->0) =     -316.43460468


--------------------------------------------------------------------------------------------------------




----------------------------------------- Iteration    1(   4)  ---------------------------------------


     EDDAV:  cpu time   37.70: real time   37.71
       DOS:  cpu time    0.00: real time    0.00
    --------------------------------------------
      LOOP:  cpu time   37.71: real time   37.71

 eigenvalue-minimisations  :  5568
 total energy-change (2. order) :-0.2551245E+02  (-0.2483848E+02)
 number of electron     349.0000000 magnetization      58.6800000
 augmentation part      349.0000000 magnetization      58.6800000

 Free energy of the ion-electron system (eV)
  ---------------------------------------------------
  alpha Z        PSCENC =       533.70227597
  Ewald energy   TEWEN  =    168154.31775405
  -Hartree energ DENC   =   -197263.33302837
  -exchange      EXHF   =         0.00000000
  -V(xc)+E(xc)   XCENC  =       690.52184149
  PAW double counting   =     26632.70730083   -28544.49199737
  entropy T*S    EENTRO =         0.11426702
  eigenvalues    EBANDS =      -787.32769372
  atomic energy  EATOM  =     30241.87372392
  Solvation contrib.  Ediel  =         0.00000000
  ---------------------------------------------------
  free energy    TOTEN  =      -341.91555619 eV

  energy without entropy =     -342.02982321  energy(sigma->0) =     -341.94412295


--------------------------------------------------------------------------------------------------------




----------------------------------------- Iteration    1(   5)  ---------------------------------------


     EDDAV:  cpu time   42.41: real time   42.42
       DOS:  cpu time    0.00: real time    0.00
    CHARGE:  cpu time    1.45: real time    1.45
    MIXING:  cpu time    0.01: real time    0.01
    --------------------------------------------
      LOOP:  cpu time   43.88: real time   43.88

 eigenvalue-minimisations  :  6488
 total energy-change (2. order) :-0.8707346E+00  (-0.8650061E+00)
 number of electron     348.9998685 magnetization      58.2918426
 augmentation part      166.4229180 magnetization      46.3270234

 Broyden mixing:
  rms(total) = 0.64422E+01    rms(broyden)= 0.64418E+01
  rms(prec ) = 0.67032E+01
  weight for this iteration     100.00

 Free energy of the ion-electron system (eV)
  ---------------------------------------------------
  alpha Z        PSCENC =       533.70227597
  Ewald energy   TEWEN  =    168154.31775405
  -Hartree energ DENC   =   -197263.33302837
  -exchange      EXHF   =         0.00000000
  -V(xc)+E(xc)   XCENC  =       690.52184149
  PAW double counting   =     26632.70730083   -28544.49199737
  entropy T*S    EENTRO =         0.11307496
  eigenvalues    EBANDS =      -788.19723625
  atomic energy  EATOM  =     30241.87372392
  Solvation contrib.  Ediel  =         0.00000000
  ---------------------------------------------------
  free energy    TOTEN  =      -342.78629077 eV

  energy without entropy =     -342.89936574  energy(sigma->0) =     -342.81455951


--------------------------------------------------------------------------------------------------------




----------------------------------------- Iteration    1(   6)  ---------------------------------------


    POTLOK:  cpu time    0.43: real time    0.43
    SETDIJ:  cpu time    0.06: real time    0.06
     EDDAV:  cpu time   39.73: real time   39.73
       DOS:  cpu time    0.00: real time    0.00
    CHARGE:  cpu time    1.36: real time    1.35
    MIXING:  cpu time    0.01: real time    0.01
    --------------------------------------------
      LOOP:  cpu time   41.58: real time   41.58

 eigenvalue-minimisations  :  5992
 total energy-change (2. order) :-0.6188190E+02  (-0.3789161E+02)
 number of electron     348.9998054 magnetization      57.7534768
 augmentation part      190.2848147 magnetization      51.3025811

 Broyden mixing:
  rms(total) = 0.12676E+02    rms(broyden)= 0.12675E+02
  rms(prec ) = 0.14085E+02
  weight for this iteration     100.00

 eigenvalues of (default mixing * dielectric matrix)
  average eigenvalue GAMMA=   0.2363
  0.2363

 Free energy of the ion-electron system (eV)
  ---------------------------------------------------
  alpha Z        PSCENC =       533.70227597
  Ewald energy   TEWEN  =    168154.31775405
  -Hartree energ DENC   =   -196856.12390526
  -exchange      EXHF   =         0.00000000
  -V(xc)+E(xc)   XCENC  =       664.76636352
  PAW double counting   =     29411.43129357   -31133.95362492
  entropy T*S    EENTRO =         0.01787762
  eigenvalues    EBANDS =     -1420.69995169
  atomic energy  EATOM  =     30241.87372392
  Solvation contrib.  Ediel  =         0.00000000
  ---------------------------------------------------
  free energy    TOTEN  =      -404.66819321 eV

  energy without entropy =     -404.68607083  energy(sigma->0) =     -404.67266262


--------------------------------------------------------------------------------------------------------




----------------------------------------- Iteration    1(   7)  ---------------------------------------


    POTLOK:  cpu time    0.54: real time    0.54
    SETDIJ:  cpu time    0.08: real time    0.08
     EDDAV:  cpu time   37.48: real time   37.48
       DOS:  cpu time    0.00: real time    0.00
    CHARGE:  cpu time    1.38: real time    1.38
    MIXING:  cpu time    0.01: real time    0.01
    --------------------------------------------
      LOOP:  cpu time   39.48: real time   39.48

 eigenvalue-minimisations  :  5296
 total energy-change (2. order) : 0.4391009E+02  (-0.2482017E+02)
 number of electron     348.9998653 magnetization      56.8412020
 augmentation part      195.4788242 magnetization      47.6201462

 Broyden mixing:
  rms(total) = 0.97984E+01    rms(broyden)= 0.97980E+01
  rms(prec ) = 0.11363E+02
  weight for this iteration     100.00

 eigenvalues of (default mixing * dielectric matrix)
  average eigenvalue GAMMA=   0.3319
  0.5332  0.1306

 Free energy of the ion-electron system (eV)
  ---------------------------------------------------
  alpha Z        PSCENC =       533.70227597
  Ewald energy   TEWEN  =    168154.31775405
  -Hartree energ DENC   =   -196618.48365001
  -exchange      EXHF   =         0.00000000
  -V(xc)+E(xc)   XCENC  =       663.83902300
  PAW double counting   =     29960.91192981   -31714.02929292
  entropy T*S    EENTRO =         0.03979651
  eigenvalues    EBANDS =     -1582.92966852
  atomic energy  EATOM  =     30241.87372392
  Solvation contrib.  Ediel  =         0.00000000
  ---------------------------------------------------
  free energy    TOTEN  =      -360.75810819 eV

  energy without entropy =     -360.79790470  energy(sigma->0) =     -360.76805732


--------------------------------------------------------------------------------------------------------




----------------------------------------- Iteration    1(   8)  ---------------------------------------


    POTLOK:  cpu time    0.34: real time    0.34
    SETDIJ:  cpu time    0.06: real time    0.06
     EDDAV:  cpu time   43.98: real time   43.98
       DOS:  cpu time    0.00: real time    0.00
    CHARGE:  cpu time    1.60: real time    1.60
    MIXING:  cpu time    0.01: real time    0.01
    --------------------------------------------
      LOOP:  cpu time   45.99: real time   46.00

 eigenvalue-minimisations  :  6528
 total energy-change (2. order) :-0.4143401E+00  (-0.1052477E+02)
 number of electron     348.9998253 magnetization      56.5384530
 augmentation part      188.9910217 magnetization      47.7363977

 Broyden mixing:
  rms(total) = 0.93977E+01    rms(broyden)= 0.93975E+01
  rms(prec ) = 0.12478E+02
  weight for this iteration     100.00

 eigenvalues of (default mixing * dielectric matrix)
  average eigenvalue GAMMA=   0.2885
  0.5331  0.2164  0.1159

 Free energy of the ion-electron system (eV)
  ---------------------------------------------------
  alpha Z        PSCENC =       533.70227597
  Ewald energy   TEWEN  =    168154.31775405
  -Hartree energ DENC   =   -197063.55865302
  -exchange      EXHF   =         0.00000000
  -V(xc)+E(xc)   XCENC  =       666.66843823
  PAW double counting   =     31258.07530217   -33096.49663497
  entropy T*S    EENTRO =        -0.00566745
  eigenvalues    EBANDS =     -1055.74898716
  atomic energy  EATOM  =     30241.87372392
  Solvation contrib.  Ediel  =         0.00000000
  ---------------------------------------------------
  free energy    TOTEN  =      -361.17244827 eV

  energy without entropy =     -361.16678081  energy(sigma->0) =     -361.17103140


--------------------------------------------------------------------------------------------------------




----------------------------------------- Iteration    1(   9)  ---------------------------------------


    POTLOK:  cpu time    0.41: real time    0.41
    SETDIJ:  cpu time    0.06: real time    0.06
     EDDAV:  cpu time   49.12: real time   49.12
       DOS:  cpu time    0.00: real time    0.00
    CHARGE:  cpu time    1.64: real time    1.64
    MIXING:  cpu time    0.01: real time    0.01
    --------------------------------------------
      LOOP:  cpu time   51.24: real time   51.24

 eigenvalue-minimisations  :  7488
 total energy-change (2. order) : 0.3125369E+02  (-0.6317244E+01)
 number of electron     348.9998349 magnetization      55.8759386
 augmentation part      186.3252110 magnetization      47.4278188

 Broyden mixing:
  rms(total) = 0.77090E+01    rms(broyden)= 0.77087E+01
  rms(prec ) = 0.10081E+02
  weight for this iteration     100.00

 eigenvalues of (default mixing * dielectric matrix)
  average eigenvalue GAMMA=   0.3394
  0.5824  0.5824  0.1184  0.0744

 Free energy of the ion-electron system (eV)
  ---------------------------------------------------
  alpha Z        PSCENC =       533.70227597
  Ewald energy   TEWEN  =    168154.31775405
  -Hartree energ DENC   =   -197094.60222158
  -exchange      EXHF   =         0.00000000
  -V(xc)+E(xc)   XCENC  =       667.44977980
  PAW double counting   =     31539.84330107   -33393.94161818
  entropy T*S    EENTRO =        -0.01898016
  eigenvalues    EBANDS =      -978.54277736
  atomic energy  EATOM  =     30241.87372392
  Solvation contrib.  Ediel  =         0.00000000
  ---------------------------------------------------
  free energy    TOTEN  =      -329.91876247 eV

  energy without entropy =     -329.89978231  energy(sigma->0) =     -329.91401743


--------------------------------------------------------------------------------------------------------




----------------------------------------- Iteration    1(  10)  ---------------------------------------


    POTLOK:  cpu time    0.43: real time    0.43
    SETDIJ:  cpu time    0.06: real time    0.06
     EDDAV:  cpu time   39.36: real time   39.37
       DOS:  cpu time    0.00: real time    0.00
    CHARGE:  cpu time    1.66: real time    1.66
    MIXING:  cpu time    0.02: real time    0.01
    --------------------------------------------
      LOOP:  cpu time   41.53: real time   41.53

 eigenvalue-minimisations  :  5760
 total energy-change (2. order) :-0.3352223E+02  (-0.6817951E+01)
 number of electron     348.9998421 magnetization      54.5906362
 augmentation part      187.4243302 magnetization      47.3271709

 Broyden mixing:
  rms(total) = 0.10844E+02    rms(broyden)= 0.10844E+02
  rms(prec ) = 0.12707E+02
  weight for this iteration     100.00

 eigenvalues of (default mixing * dielectric matrix)
  average eigenvalue GAMMA=   0.3737
  0.7868  0.7868  0.1150  0.1150  0.0648

 Free energy of the ion-electron system (eV)
  ---------------------------------------------------
  alpha Z        PSCENC =       533.70227597
  Ewald energy   TEWEN  =    168154.31775405
  -Hartree energ DENC   =   -197085.36153693
  -exchange      EXHF   =         0.00000000
  -V(xc)+E(xc)   XCENC  =       668.14414647
  PAW double counting   =     31956.94487040   -33827.14806908
  entropy T*S    EENTRO =        -0.03139942
  eigenvalues    EBANDS =     -1005.88276163
  atomic energy  EATOM  =     30241.87372392
  Solvation contrib.  Ediel  =         0.00000000
  ---------------------------------------------------
  free energy    TOTEN  =      -363.44099625 eV

  energy without entropy =     -363.40959683  energy(sigma->0) =     -363.43314640


--------------------------------------------------------------------------------------------------------




----------------------------------------- Iteration    1(  11)  ---------------------------------------


    POTLOK:  cpu time    0.41: real time    0.41
    SETDIJ:  cpu time    0.06: real time    0.06
     EDDAV:  cpu time   37.03: real time   37.03
       DOS:  cpu time    0.00: real time    0.00
    CHARGE:  cpu time    1.54: real time    1.54
    MIXING:  cpu time    0.01: real time    0.01
    --------------------------------------------
      LOOP:  cpu time   39.04: real time   39.05

 eigenvalue-minimisations  :  5816
 total energy-change (2. order) : 0.5584510E+02  (-0.5956738E+01)
 number of electron     348.9998570 magnetization      54.3667518
 augmentation part      186.5230901 magnetization      42.1836634

 Broyden mixing:
  rms(total) = 0.61547E+01    rms(broyden)= 0.61544E+01
  rms(prec ) = 0.68752E+01
  weight for this iteration     100.00

 eigenvalues of (default mixing * dielectric matrix)
  average eigenvalue GAMMA=   0.3439
  0.7962  0.7962  0.1605  0.1239  0.1239  0.0626

 Free energy of the ion-electron system (eV)
  ---------------------------------------------------
  alpha Z        PSCENC =       533.70227597
  Ewald energy   TEWEN  =    168154.31775405
  -Hartree energ DENC   =   -197059.40490224
  -exchange      EXHF   =         0.00000000
  -V(xc)+E(xc)   XCENC  =       670.51614700
  PAW double counting   =     32645.98607662   -34543.07514897
  entropy T*S    EENTRO =        -0.01369906
  eigenvalues    EBANDS =      -951.49812691
  atomic energy  EATOM  =     30241.87372392
  Solvation contrib.  Ediel  =         0.00000000
  ---------------------------------------------------
  free energy    TOTEN  =      -307.59589963 eV

  energy without entropy =     -307.58220056  energy(sigma->0) =     -307.59247486


--------------------------------------------------------------------------------------------------------




----------------------------------------- Iteration    1(  12)  ---------------------------------------


    POTLOK:  cpu time    0.42: real time    0.42
    SETDIJ:  cpu time    0.06: real time    0.06
     EDDAV:  cpu time   33.85: real time   33.86
       DOS:  cpu time    0.00: real time    0.00
    CHARGE:  cpu time    1.46: real time    1.46
    MIXING:  cpu time    0.02: real time    0.01
    --------------------------------------------
      LOOP:  cpu time   35.81: real time   35.81

 eigenvalue-minimisations  :  5240
 total energy-change (2. order) : 0.1014375E+02  (-0.2973910E+01)
 number of electron     348.9998576 magnetization      54.2253291
 augmentation part      185.9392843 magnetization      41.8896936

 Broyden mixing:
  rms(total) = 0.43263E+01    rms(broyden)= 0.43262E+01
  rms(prec ) = 0.47410E+01
  weight for this iteration     100.00

 eigenvalues of (default mixing * dielectric matrix)
  average eigenvalue GAMMA=   0.3291
  1.0878  0.4365  0.3381  0.1371  0.1371  0.1037  0.0632

 Free energy of the ion-electron system (eV)
  ---------------------------------------------------
  alpha Z        PSCENC =       533.70227597
  Ewald energy   TEWEN  =    168154.31775405
  -Hartree energ DENC   =   -197081.92667448
  -exchange      EXHF   =         0.00000000
  -V(xc)+E(xc)   XCENC  =       671.20708502
  PAW double counting   =     32841.63530033   -34743.93228446
  entropy T*S    EENTRO =         0.00713032
  eigenvalues    EBANDS =      -914.33645744
  atomic energy  EATOM  =     30241.87372392
  Solvation contrib.  Ediel  =         0.00000000
  ---------------------------------------------------
  free energy    TOTEN  =      -297.45214678 eV

  energy without entropy =     -297.45927710  energy(sigma->0) =     -297.45392936


--------------------------------------------------------------------------------------------------------




----------------------------------------- Iteration    1(  13)  ---------------------------------------


    POTLOK:  cpu time    0.41: real time    0.41
    SETDIJ:  cpu time    0.06: real time    0.06
     EDDAV:  cpu time   33.67: real time   33.67
       DOS:  cpu time    0.00: real time    0.00
    CHARGE:  cpu time    1.56: real time    1.56
    MIXING:  cpu time    0.01: real time    0.01
    --------------------------------------------
      LOOP:  cpu time   35.71: real time   35.72

 eigenvalue-minimisations  :  5192
 total energy-change (2. order) : 0.3068327E+01  (-0.1423673E+01)
 number of electron     348.9998512 magnetization      54.2900096
 augmentation part      185.2227344 magnetization      42.7184423

 Broyden mixing:
  rms(total) = 0.33640E+01    rms(broyden)= 0.33638E+01
  rms(prec ) = 0.37993E+01
  weight for this iteration     100.00

 eigenvalues of (default mixing * dielectric matrix)
  average eigenvalue GAMMA=   0.3245
  1.1452  0.3391  0.3391  0.3624  0.1209  0.1209  0.0626  0.1054

 Free energy of the ion-electron system (eV)
  ---------------------------------------------------
  alpha Z        PSCENC =       533.70227597
  Ewald energy   TEWEN  =    168154.31775405
  -Hartree energ DENC   =   -197140.91920576
  -exchange      EXHF   =         0.00000000
  -V(xc)+E(xc)   XCENC  =       671.44385351
  PAW double counting   =     33123.19560943   -35030.87994305
  entropy T*S    EENTRO =         0.05118428
  eigenvalues    EBANDS =      -847.16907222
  atomic energy  EATOM  =     30241.87372392
  Solvation contrib.  Ediel  =         0.00000000
  ---------------------------------------------------
  free energy    TOTEN  =      -294.38381988 eV

  energy without entropy =     -294.43500416  energy(sigma->0) =     -294.39661595


--------------------------------------------------------------------------------------------------------




----------------------------------------- Iteration    1(  14)  ---------------------------------------


    POTLOK:  cpu time    0.41: real time    0.41
    SETDIJ:  cpu time    0.06: real time    0.06
     EDDAV:  cpu time   34.10: real time   34.10
       DOS:  cpu time    0.00: real time    0.00
    CHARGE:  cpu time    1.53: real time    1.53
    MIXING:  cpu time    0.02: real time    0.01
    --------------------------------------------
      LOOP:  cpu time   36.12: real time   36.12

 eigenvalue-minimisations  :  5272
 total energy-change (2. order) :-0.1699991E+00  (-0.8955547E+00)
 number of electron     348.9998458 magnetization      54.3966694
 augmentation part      185.0522440 magnetization      43.2779426

 Broyden mixing:
  rms(total) = 0.24649E+01    rms(broyden)= 0.24647E+01
  rms(prec ) = 0.26376E+01
  weight for this iteration     100.00

 eigenvalues of (default mixing * dielectric matrix)
  average eigenvalue GAMMA=   0.3411
  1.2079  0.4442  0.4442  0.4385  0.0627  0.1236  0.1236  0.1126  0.1126

 Free energy of the ion-electron system (eV)
  ---------------------------------------------------
  alpha Z        PSCENC =       533.70227597
  Ewald energy   TEWEN  =    168154.31775405
  -Hartree energ DENC   =   -197167.11526260
  -exchange      EXHF   =         0.00000000
  -V(xc)+E(xc)   XCENC  =       671.59143747
  PAW double counting   =     33202.48519632   -35111.45613020
  entropy T*S    EENTRO =        -0.00303125
  eigenvalues    EBANDS =      -819.94978262
  atomic energy  EATOM  =     30241.87372392
  Solvation contrib.  Ediel  =         0.00000000
  ---------------------------------------------------
  free energy    TOTEN  =      -294.55381895 eV

  energy without entropy =     -294.55078770  energy(sigma->0) =     -294.55306114


--------------------------------------------------------------------------------------------------------




----------------------------------------- Iteration    1(  15)  ---------------------------------------


    POTLOK:  cpu time    0.42: real time    0.42
    SETDIJ:  cpu time    0.06: real time    0.06
     EDDAV:  cpu time   33.09: real time   33.09
       DOS:  cpu time    0.00: real time    0.00
    CHARGE:  cpu time    1.53: real time    1.53
    MIXING:  cpu time    0.02: real time    0.02
    --------------------------------------------
      LOOP:  cpu time   35.11: real time   35.12

 eigenvalue-minimisations  :  5088
 total energy-change (2. order) :-0.2121215E+00  (-0.5105736E+00)
 number of electron     348.9998479 magnetization      54.4511605
 augmentation part      185.0050089 magnetization      44.1490837

 Broyden mixing:
  rms(total) = 0.17689E+01    rms(broyden)= 0.17689E+01
  rms(prec ) = 0.18527E+01
  weight for this iteration     100.00

 eigenvalues of (default mixing * dielectric matrix)
  average eigenvalue GAMMA=   0.3438
  1.2450  0.5075  0.5075  0.4209  0.2102  0.0627  0.1295  0.1295  0.1125  0.1125

 Free energy of the ion-electron system (eV)
  ---------------------------------------------------
  alpha Z        PSCENC =       533.70227597
  Ewald energy   TEWEN  =    168154.31775405
  -Hartree energ DENC   =   -197169.85795483
  -exchange      EXHF   =         0.00000000
  -V(xc)+E(xc)   XCENC  =       672.33754997
  PAW double counting   =     33304.21810470   -35213.90245935
  entropy T*S    EENTRO =         0.00547541
  eigenvalues    EBANDS =      -817.46041027
  atomic energy  EATOM  =     30241.87372392
  Solvation contrib.  Ediel  =         0.00000000
  ---------------------------------------------------
  free energy    TOTEN  =      -294.76594043 eV

  energy without entropy =     -294.77141584  energy(sigma->0) =     -294.76730928


--------------------------------------------------------------------------------------------------------




----------------------------------------- Iteration    1(  16)  ---------------------------------------


    POTLOK:  cpu time    0.42: real time    0.42
    SETDIJ:  cpu time    0.06: real time    0.06
     EDDAV:  cpu time   35.74: real time   35.74
       DOS:  cpu time    0.00: real time    0.00
    CHARGE:  cpu time    1.54: real time    1.54
    MIXING:  cpu time    0.01: real time    0.01
    --------------------------------------------
      LOOP:  cpu time   37.78: real time   37.78

 eigenvalue-minimisations  :  5568
 total energy-change (2. order) :-0.1222170E+01  (-0.2736929E+00)
 number of electron     348.9998508 magnetization      54.5200901
 augmentation part      184.9223771 magnetization      44.9205639

 Broyden mixing:
  rms(total) = 0.18810E+01    rms(broyden)= 0.18810E+01
  rms(prec ) = 0.20178E+01
  weight for this iteration     100.00

 eigenvalues of (default mixing * dielectric matrix)
  average eigenvalue GAMMA=   0.3872
  1.3755  0.6751  0.6751  0.4359  0.4359  0.0627  0.1332  0.1332  0.1129  0.1129
  0.1073

 Free energy of the ion-electron system (eV)
  ---------------------------------------------------
  alpha Z        PSCENC =       533.70227597
  Ewald energy   TEWEN  =    168154.31775405
  -Hartree energ DENC   =   -197166.99127681
  -exchange      EXHF   =         0.00000000
  -V(xc)+E(xc)   XCENC  =       672.33958718
  PAW double counting   =     33370.27291614   -35279.81248637
  entropy T*S    EENTRO =        -0.00710656
  eigenvalues    EBANDS =      -821.68349769
  atomic energy  EATOM  =     30241.87372392
  Solvation contrib.  Ediel  =         0.00000000
  ---------------------------------------------------
  free energy    TOTEN  =      -295.98811016 eV

  energy without entropy =     -295.98100360  energy(sigma->0) =     -295.98633352


--------------------------------------------------------------------------------------------------------




----------------------------------------- Iteration    1(  17)  ---------------------------------------


    POTLOK:  cpu time    0.41: real time    0.41
    SETDIJ:  cpu time    0.06: real time    0.06
     EDDAV:  cpu time   33.71: real time   33.71
       DOS:  cpu time    0.00: real time    0.00
    CHARGE:  cpu time    1.57: real time    1.57
    MIXING:  cpu time    0.02: real time    0.02
    --------------------------------------------
      LOOP:  cpu time   35.77: real time   35.77

 eigenvalue-minimisations  :  5184
 total energy-change (2. order) :-0.1541493E+01  (-0.2629263E+00)
 number of electron     348.9998511 magnetization      54.5999777
 augmentation part      185.4000917 magnetization      46.2061521

 Broyden mixing:
  rms(total) = 0.16340E+01    rms(broyden)= 0.16340E+01
  rms(prec ) = 0.17697E+01
  weight for this iteration     100.00

 eigenvalues of (default mixing * dielectric matrix)
  average eigenvalue GAMMA=   0.3994
  1.3973  0.7819  0.7819  0.4024  0.4024  0.3639  0.0627  0.1243  0.1243  0.1262
  0.1130  0.1130

 Free energy of the ion-electron system (eV)
  ---------------------------------------------------
  alpha Z        PSCENC =       533.70227597
  Ewald energy   TEWEN  =    168154.31775405
  -Hartree energ DENC   =   -197175.60333001
  -exchange      EXHF   =         0.00000000
  -V(xc)+E(xc)   XCENC  =       672.60969953
  PAW double counting   =     33602.49184320   -35511.24123822
  entropy T*S    EENTRO =         0.00917253
  eigenvalues    EBANDS =      -815.68950423
  atomic energy  EATOM  =     30241.87372392
  Solvation contrib.  Ediel  =         0.00000000
  ---------------------------------------------------
  free energy    TOTEN  =      -297.52960326 eV

  energy without entropy =     -297.53877579  energy(sigma->0) =     -297.53189640


--------------------------------------------------------------------------------------------------------




----------------------------------------- Iteration    1(  18)  ---------------------------------------


    POTLOK:  cpu time    0.40: real time    0.41
    SETDIJ:  cpu time    0.06: real time    0.06
     EDDAV:  cpu time   33.94: real time   33.94
       DOS:  cpu time    0.00: real time    0.00
    CHARGE:  cpu time    1.55: real time    1.55
    MIXING:  cpu time    0.02: real time    0.02
    --------------------------------------------
      LOOP:  cpu time   35.97: real time   35.98

 eigenvalue-minimisations  :  5216
 total energy-change (2. order) :-0.8577602E+00  (-0.1979519E+00)
 number of electron     348.9998494 magnetization      54.9126331
 augmentation part      185.6268358 magnetization      46.9967213

 Broyden mixing:
  rms(total) = 0.17643E+01    rms(broyden)= 0.17642E+01
  rms(prec ) = 0.19111E+01
  weight for this iteration     100.00

 eigenvalues of (default mixing * dielectric matrix)
  average eigenvalue GAMMA=   0.4382
  1.4447  0.9622  0.9622  0.5695  0.4841  0.4841  0.0627  0.1285  0.1285  0.1355
  0.1132  0.1132  0.1079

 Free energy of the ion-electron system (eV)
  ---------------------------------------------------
  alpha Z        PSCENC =       533.70227597
  Ewald energy   TEWEN  =    168154.31775405
  -Hartree energ DENC   =   -197181.88576020
  -exchange      EXHF   =         0.00000000
  -V(xc)+E(xc)   XCENC  =       672.86511603
  PAW double counting   =     33660.13307921   -35568.08324830
  entropy T*S    EENTRO =         0.00482021
  eigenvalues    EBANDS =      -811.31512432
  atomic energy  EATOM  =     30241.87372392
  Solvation contrib.  Ediel  =         0.00000000
  ---------------------------------------------------
  free energy    TOTEN  =      -298.38736344 eV

  energy without entropy =     -298.39218365  energy(sigma->0) =     -298.38856849


--------------------------------------------------------------------------------------------------------




----------------------------------------- Iteration    1(  19)  ---------------------------------------


    POTLOK:  cpu time    0.41: real time    0.41
    SETDIJ:  cpu time    0.06: real time    0.06
     EDDAV:  cpu time   35.85: real time   35.85
       DOS:  cpu time    0.00: real time    0.00
    CHARGE:  cpu time    1.56: real time    1.56
    MIXING:  cpu time    0.02: real time    0.02
    --------------------------------------------
      LOOP:  cpu time   37.91: real time   37.91

 eigenvalue-minimisations  :  5600
 total energy-change (2. order) :-0.8293390E+00  (-0.2627817E+00)
 number of electron     348.9998475 magnetization      55.0586070
 augmentation part      186.0081532 magnetization      48.4998025

 Broyden mixing:
  rms(total) = 0.10994E+01    rms(broyden)= 0.10994E+01
  rms(prec ) = 0.12002E+01
  weight for this iteration     100.00

 eigenvalues of (default mixing * dielectric matrix)
  average eigenvalue GAMMA=   0.4467
  1.4384  1.0344  1.0344  0.5119  0.5119  0.5611  0.3718  0.0627  0.1249  0.1249
  0.1215  0.1215  0.1111  0.1233

 Free energy of the ion-electron system (eV)
  ---------------------------------------------------
  alpha Z        PSCENC =       533.70227597
  Ewald energy   TEWEN  =    168154.31775405
  -Hartree energ DENC   =   -197203.98766970
  -exchange      EXHF   =         0.00000000
  -V(xc)+E(xc)   XCENC  =       673.76793448
  PAW double counting   =     33767.00030580   -35672.78186807
  entropy T*S    EENTRO =        -0.02007599
  eigenvalues    EBANDS =      -793.08908291
  atomic energy  EATOM  =     30241.87372392
  Solvation contrib.  Ediel  =         0.00000000
  ---------------------------------------------------
  free energy    TOTEN  =      -299.21670244 eV

  energy without entropy =     -299.19662645  energy(sigma->0) =     -299.21168344


--------------------------------------------------------------------------------------------------------




----------------------------------------- Iteration    1(  20)  ---------------------------------------


    POTLOK:  cpu time    0.41: real time    0.41
    SETDIJ:  cpu time    0.06: real time    0.06
     EDDAV:  cpu time   35.07: real time   35.07
       DOS:  cpu time    0.00: real time    0.00
    CHARGE:  cpu time    1.53: real time    1.53
    MIXING:  cpu time    0.02: real time    0.02
    --------------------------------------------
      LOOP:  cpu time   37.09: real time   37.10

 eigenvalue-minimisations  :  5424
 total energy-change (2. order) :-0.3094368E+00  (-0.1333116E+00)
 number of electron     348.9998465 magnetization      55.2306821
 augmentation part      186.1143065 magnetization      49.0923230

 Broyden mixing:
  rms(total) = 0.10446E+01    rms(broyden)= 0.10446E+01
  rms(prec ) = 0.11215E+01
  weight for this iteration     100.00

 eigenvalues of (default mixing * dielectric matrix)
  average eigenvalue GAMMA=   0.4541
  1.4003  1.0830  1.0830  0.5974  0.5974  0.5662  0.5662  0.0627  0.1248  0.1248
  0.1325  0.1325  0.1154  0.1154  0.1093

 Free energy of the ion-electron system (eV)
  ---------------------------------------------------
  alpha Z        PSCENC =       533.70227597
[...]
     28     Co          0.030          0.039          0.928
     29     Co         -0.015          0.003          0.979
     30     Co         -0.002          0.002          1.004
     31     Co         -0.021          0.009          0.925
     32     Co          0.007          0.015          0.986
     33     Co          0.013          0.028          0.955
     34     Co          0.003          0.011          0.984
     35     Co          0.001          0.008          1.001
     36     Co         -0.018         -0.005          1.005
     37     C           0.013          0.000          0.684
     38     C          -0.147         -0.126          0.835
     39     C          -0.132         -0.122          0.829
     40     O          -0.173         -0.133          1.010
     41     H           0.063          0.042          0.796
     42     H           0.047          0.038          0.745
     43     H           0.033          0.021          0.811
     44     H           0.050          0.033          0.804
     45     H           0.052          0.040          0.741
     46     H           0.025          0.013          0.814
     47     H           0.187          0.131          0.656

  dDsC method for vdW energy calculation
  ---------------------------------------------------------------------------------------------

  Parameters of vdW forcefield:
            C6dDsC            XDM            ALPHAts        RELVOL
            (au)              (au)            (au)                
   ---------------------------------------------------------------
   Co        435.418         10.237         50.829          1.017
   Co        448.298         10.306         51.983          1.040
   Co        435.212         10.234         50.823          1.016
   Co        424.109         10.162         49.875          0.997
   Co        428.389         10.186         50.259          1.005
   Co        419.423         10.132         49.470          0.989
   Co        430.253         10.196         50.429          1.009
   Co        432.073         10.214         50.552          1.011
   Co        432.717         10.213         50.633          1.013
   Co        292.832          7.659         45.695          0.914
   Co        286.835          7.640         44.868          0.897
   Co        284.068          7.628         44.505          0.890
   Co        287.104          7.638         44.922          0.898
   Co        286.902          7.630         44.937          0.899
   Co        289.371          7.649         45.211          0.904
   Co        287.930          7.637         45.059          0.901
   Co        287.342          7.643         44.931          0.899
   Co        288.687          7.639         45.165          0.903
   Co        286.014          7.596         44.998          0.900
   Co        283.288          7.540         44.901          0.898
   Co        281.790          7.555         44.577          0.892
   Co        281.535          7.569         44.452          0.889
   Co        285.533          7.589         44.965          0.899
   Co        285.542          7.552         45.187          0.904
   Co        281.896          7.540         44.679          0.894
   Co        281.724          7.564         44.511          0.890
   Co        282.905          7.545         44.810          0.896
   Co        352.064          9.067         46.402          0.928
   Co        393.216          9.598         48.959          0.979
   Co        426.876         10.161         50.208          1.004
   Co        338.191          8.742         46.232          0.925
   Co        407.212          9.873         49.290          0.986
   Co        370.565          9.276         47.740          0.955
   Co        405.336          9.849         49.184          0.984
   Co        423.674         10.118         50.040          1.001
   Co        425.450         10.118         50.252          1.005
   C          33.410          4.863          8.211          0.684
   C          46.795          5.584         10.015          0.835
   C          46.182          5.546          9.951          0.829
   O          27.500          6.027          5.453          1.010
   H           6.429          2.146          3.581          0.796
   H           5.078          1.810          3.353          0.745
   H           7.071          2.314          3.651          0.811
   H           6.802          2.248          3.616          0.804
   H           5.022          1.800          3.334          0.741
   H           7.251          2.365          3.663          0.814
   H           4.872          1.971          2.954          0.656

  IVDW =   4
  VDW_RADIUS =    50.000 A
  VDW_S6 aka ATT0 =    13.960
  VDW_SR aka BTT0 =     1.320
  LVDW_ONECELL = F F F

  Number of pair interactions contributing to vdW energy:  493948
  Edisp (eV):   -9.02951
    FORVDW:  cpu time   20.12: real time   20.12

  FORCE on cell =-STRESS in cart. coord.  units (eV):
  Direction    XX          YY          ZZ          XY          YZ          ZX
  --------------------------------------------------------------------------------------
  Alpha Z   533.70228   533.70228   533.70228
  Ewald  186419.05771186454.81807************   -23.86211    84.98835    70.89161
  Hartree193537.36667193543.94342************    -6.58564    62.72177    44.19031
  E(xc)   -1757.36694 -1757.23381 -1759.21281    -0.07658     0.04569     0.06286
  Local  ************************387230.56253    26.34707  -149.01894  -112.51104
  n-local  -241.39078  -239.36708  -264.31002     0.49530     0.02788     0.18044
  augment  5609.98495  5608.65233  5603.96062    -0.13559     0.43316     0.28689
  Kinetic  3114.41690  3100.12732  3144.57419     3.43519     1.03979    -2.78537
  Fock        0.00000     0.00000     0.00000     0.00000     0.00000     0.00000
  vdW       -11.08740   -11.01400    -7.65092     0.02055    -0.04627    -0.02418
  -------------------------------------------------------------------------------------
  Total     -19.67815   -19.80207   -10.98581    -0.36180     0.19143     0.29152
  in kB     -26.84298   -27.01202   -14.98575    -0.49353     0.26113     0.39766
  external pressure =      -22.95 kB  Pullay stress =        0.00 kB


 VOLUME and BASIS-vectors are now :
 -----------------------------------------------------------------------------
  energy-cutoff  :      400.00
  volume of cell :     1174.53
      direct lattice vectors                 reciprocal lattice vectors
     7.410000000  0.000000000  0.000000000     0.134952767  0.077914995  0.000000000
    -3.705000000  6.417250000  0.000000000     0.000000000  0.155829989  0.000000000
     0.000000000  0.000000000 24.700000000     0.000000000  0.000000000  0.040485830

  length of vectors
     7.410000000  7.410001522 24.700000000     0.155830021  0.155829989  0.040485830


 FORCES acting on ions
    electron-ion (+dipol)            ewald-force                    non-local-force                 convergence-correction
 -----------------------------------------------------------------------------------------------
   0.156E+00 0.973E-01 0.293E+04   -.176E+00 -.916E-01 -.293E+04   0.489E-02 0.272E-02 -.119E+01   0.653E-03 0.838E-03 -.319E-02
   0.779E-01 -.239E-01 0.293E+04   -.602E-01 0.302E-01 -.293E+04   -.155E-01 -.907E-02 -.121E+01   -.341E-03 -.197E-03 -.215E-02
   -.243E+00 0.912E-01 0.293E+04   0.237E+00 -.115E+00 -.293E+04   0.122E-01 0.170E-01 -.116E+01   -.310E-03 -.423E-03 -.286E-02
   -.288E-01 0.149E+00 0.293E+04   0.495E-01 -.143E+00 -.293E+04   -.646E-02 -.142E-01 -.121E+01   0.127E-02 0.141E-02 -.201E-02
   -.988E-02 -.172E+00 0.293E+04   -.100E-01 0.142E+00 -.293E+04   0.456E-02 0.192E-01 -.123E+01   -.745E-03 0.385E-03 -.174E-02
   0.436E-01 -.120E+00 0.293E+04   -.384E-01 0.127E+00 -.293E+04   -.420E-02 -.158E-01 -.120E+01   -.523E-03 0.361E-03 -.179E-02
   -.269E+00 0.717E-01 0.293E+04   0.265E+00 -.576E-01 -.293E+04   0.398E-02 -.118E-01 -.122E+01   -.626E-03 -.118E-02 -.180E-02
   0.612E-01 -.552E-01 0.293E+04   -.381E-01 0.815E-01 -.293E+04   -.273E-01 -.748E-02 -.117E+01   -.650E-03 -.793E-03 -.257E-02
   0.209E+00 -.557E-01 0.293E+04   -.226E+00 0.329E-01 -.293E+04   0.151E-01 0.200E-01 -.119E+01   0.127E-02 -.400E-03 -.218E-02
   -.105E+01 0.593E+00 0.114E+04   0.104E+01 -.635E+00 -.114E+04   0.357E-01 0.436E-01 -.357E+00   -.347E-03 -.786E-03 -.167E-02
   0.364E+01 -.121E+01 0.114E+04   -.366E+01 0.119E+01 -.114E+04   -.440E-01 0.543E-01 -.367E+00   0.159E-02 -.325E-03 -.181E-02
   -.246E+01 0.394E+00 0.114E+04   0.250E+01 -.381E+00 -.114E+04   0.948E-02 0.245E-03 -.427E+00   -.124E-02 -.138E-02 -.139E-02
   0.163E+00 0.156E+01 0.114E+04   -.175E+00 -.158E+01 -.114E+04   0.473E-03 -.113E-01 -.411E+00   0.731E-03 0.261E-02 -.153E-02
   0.104E+01 -.204E+01 0.114E+04   -.102E+01 0.205E+01 -.114E+04   -.654E-01 0.210E-03 -.422E+00   -.495E-03 0.911E-03 -.111E-02
   -.101E+01 0.741E+00 0.114E+04   0.991E+00 -.771E+00 -.114E+04   0.443E-01 0.897E-02 -.374E+00   -.237E-03 0.192E-02 -.116E-02
   -.669E+00 0.164E+01 0.114E+04   0.647E+00 -.164E+01 -.114E+04   0.227E-01 -.520E-01 -.374E+00   0.109E-02 -.317E-03 -.111E-02
   -.206E+01 -.456E-02 0.114E+04   0.211E+01 0.383E-01 -.114E+04   -.238E-01 -.505E-01 -.356E+00   -.131E-02 -.129E-02 -.949E-03
   0.293E+01 -.790E+00 0.114E+04   -.298E+01 0.796E+00 -.114E+04   0.249E-02 0.118E-01 -.551E+00   0.224E-03 -.135E-02 -.103E-02
   -.430E+01 0.308E+01 -.661E+03   0.420E+01 -.289E+01 0.661E+03   0.101E+00 -.201E+00 0.154E-01   0.948E-03 0.729E-03 0.193E-02
   -.378E+01 0.670E+00 -.639E+03   0.376E+01 -.628E+00 0.639E+03   0.259E-01 -.485E-01 0.501E+00   -.577E-03 -.139E-03 -.204E-04
   0.705E+01 0.420E+01 -.659E+03   -.685E+01 -.430E+01 0.659E+03   -.203E+00 0.111E+00 0.115E+00   -.300E-03 -.163E-02 -.544E-03
   0.440E+00 -.666E+01 -.654E+03   -.144E+00 0.656E+01 0.654E+03   -.306E+00 0.949E-01 0.184E+00   0.238E-02 0.260E-02 -.117E-02
   -.411E+01 -.591E+01 -.656E+03   0.378E+01 0.575E+01 0.655E+03   0.329E+00 0.154E+00 0.255E+00   -.647E-03 0.194E-02 0.977E-03
   0.466E+01 -.361E+01 -.644E+03   -.467E+01 0.364E+01 0.644E+03   0.931E-02 -.338E-01 0.508E+00   -.172E-02 0.964E-03 -.260E-02
   -.267E+01 -.144E+01 -.655E+03   0.268E+01 0.139E+01 0.654E+03   -.182E-01 0.595E-01 0.461E+00   0.283E-03 -.232E-02 0.893E-03
   0.230E+01 0.714E+01 -.664E+03   -.230E+01 -.691E+01 0.663E+03   -.144E-02 -.235E+00 0.242E+00   -.197E-02 -.170E-02 0.139E-02
   0.660E+00 0.238E+01 -.639E+03   -.689E+00 -.241E+01 0.639E+03   0.254E-01 0.331E-01 0.487E+00   0.170E-02 -.483E-03 -.180E-03
   0.585E+02 0.809E+02 -.241E+04   -.592E+02 -.817E+02 0.241E+04   0.693E+00 0.787E+00 0.256E+01   0.943E-03 -.223E-02 0.130E-02
   -.534E+02 0.391E+02 -.244E+04   0.540E+02 -.395E+02 0.243E+04   -.587E+00 0.385E+00 0.184E+01   -.348E-03 0.676E-03 0.124E-02
   0.131E+02 0.119E+02 -.252E+04   -.132E+02 -.119E+02 0.252E+04   0.121E+00 -.249E-01 0.138E+01   -.681E-03 -.419E-02 0.488E-03
   -.479E+02 -.671E+02 -.239E+04   0.479E+02 0.674E+02 0.240E+04   -.282E-01 -.242E+00 -.197E+01   0.258E-02 0.120E-02 0.410E-03
   -.363E+02 -.120E+02 -.249E+04   0.366E+02 0.121E+02 0.249E+04   -.228E+00 -.892E-01 0.169E+01   -.422E-02 0.702E-03 0.301E-03
   0.681E+02 -.136E+02 -.244E+04   -.688E+02 0.136E+02 0.243E+04   0.664E+00 0.244E-01 0.278E+01   0.160E-02 0.229E-04 0.973E-04
   0.294E+01 -.445E+02 -.249E+04   -.291E+01 0.449E+02 0.249E+04   -.323E-01 -.367E+00 0.173E+01   0.377E-02 0.145E-02 -.231E-03
   -.103E+02 -.202E+02 -.250E+04   0.103E+02 0.202E+02 0.250E+04   0.270E-02 0.133E-01 0.140E+01   -.144E-02 -.109E-03 0.816E-04
   0.649E+01 0.191E+02 -.250E+04   -.647E+01 -.191E+02 0.250E+04   -.187E-01 0.256E-01 0.136E+01   -.232E-02 0.257E-02 0.202E-03
   -.287E+02 -.639E+02 -.133E+04   0.317E+02 0.712E+02 0.133E+04   -.296E+01 -.731E+01 0.420E+01   0.611E-03 -.398E-05 0.136E-03
   -.117E+03 -.202E+02 -.135E+04   0.117E+03 0.202E+02 0.135E+04   -.151E+00 -.431E-02 0.211E-01   0.696E-04 0.477E-04 -.141E-03
   0.873E+02 -.887E+02 -.136E+04   -.872E+02 0.887E+02 0.136E+04   -.132E+00 0.591E-01 -.280E+00   0.414E-03 0.224E-03 0.484E-03
   0.107E+03 0.182E+03 -.210E+04   -.146E+03 -.186E+03 0.211E+04   0.391E+02 0.386E+01 -.601E+01   0.462E-03 -.518E-03 0.756E-04
   -.337E+02 -.535E+02 -.331E+03   0.358E+02 0.587E+02 0.331E+03   -.206E+01 -.515E+01 0.105E+00   -.291E-04 0.395E-04 -.565E-04
   -.765E+01 0.120E+02 -.350E+03   0.672E+01 -.133E+02 0.355E+03   0.952E+00 0.132E+01 -.507E+01   0.393E-04 -.539E-05 -.189E-03
   -.537E+02 0.306E+02 -.326E+03   0.577E+02 -.338E+02 0.324E+03   -.394E+01 0.323E+01 0.195E+01   -.626E-04 -.231E-04 0.248E-04
   -.325E+01 -.633E+02 -.336E+03   0.450E+01 0.686E+02 0.335E+03   -.127E+01 -.537E+01 0.301E+00   0.105E-03 0.925E-04 0.500E-04
   0.209E+02 0.135E+01 -.355E+03   -.216E+02 -.268E+01 0.361E+03   0.663E+00 0.134E+01 -.512E+01   0.149E-04 0.331E-04 -.858E-04
   0.584E+02 -.468E+01 -.331E+03   -.631E+02 0.405E+01 0.328E+03   0.475E+01 0.638E+00 0.216E+01   0.504E-04 0.383E-04 0.361E-03
   -.608E+02 0.756E+02 -.355E+03   0.669E+02 -.808E+02 0.355E+03   -.609E+01 0.517E+01 -.695E+00   0.459E-04 0.529E-05 0.986E-05
 -----------------------------------------------------------------------------------------------
   -.295E+02 0.167E+01 0.763E+01   -.711E-13 -.298E-12 0.149E-10   0.294E+02 -.177E+01 -.731E+01   0.168E-02 -.215E-04 -.268E-01
 
 
 POSITION                                       TOTAL-FORCE (eV/Angst)
 -----------------------------------------------------------------------------------
      1.23500      0.71303      0.00000        -0.012564      0.011472      0.448070
      3.70500      0.71303      0.00000         0.003672     -0.000815      0.443327
      6.17500      0.71303      0.00000         0.007153     -0.005358      0.445865
     -0.00000      2.85211      0.00000         0.017201     -0.004988      0.441607
      2.47000      2.85211      0.00000        -0.014304     -0.008067      0.432078
      4.94000      2.85211      0.00000         0.002259     -0.006202      0.462028
      1.23500      4.99118      0.00000         0.001012      0.003174      0.444508
      3.70500      4.99118      0.00000        -0.003081      0.019989      0.455032
     -1.23500      4.99118      0.00000         0.000870     -0.001125      0.457089
      0.00000      0.00000      2.01675         0.023586      0.002284     -0.434145
      2.47000      0.00000      2.01675        -0.065940      0.029208     -0.405336
      4.94000      0.00000      2.01675         0.049908      0.013292     -0.484224
      1.23500      2.13908      2.01675        -0.007970     -0.025900     -0.480346
      3.70500      2.13908      2.01675        -0.037509      0.015955     -0.487648
      6.17500      2.13908      2.01675         0.024220     -0.016930     -0.415531
      0.00000      4.27816      2.01675         0.003949     -0.049183     -0.449030
      2.47000      4.27816      2.01675         0.026963     -0.016259     -0.404585
      4.94000      4.27816      2.01675        -0.047111      0.018910     -0.479923
      1.21445      0.71713      4.08055         0.003297     -0.003678      0.001730
      3.70619      0.71002      4.03883         0.004902     -0.004478      0.000084
      6.18207      0.70026      4.06656         0.003979      0.005029      0.000932
      0.01053      2.83645      4.06446        -0.004652      0.001015     -0.000153
      2.45321      2.83528      4.05429        -0.000379      0.000277      0.002697
      4.93365      2.84427      4.04392         0.001853      0.000236      0.003012
      1.23234      4.98280      4.05159        -0.006368      0.002834     -0.000462
      3.69746      4.99939      4.06460        -0.001759     -0.005408      0.007224
     -1.23909      4.98043      4.03945         0.000492      0.004522      0.000362
      3.69675      6.40099      6.07521        -0.003021      0.002549      0.001256
     -1.21276      6.39635      5.94821        -0.000520     -0.001787      0.000414
      1.22248      6.40582      5.97921         0.005250     -0.010174      0.000212
      1.21494      2.12202      6.12375         0.000775      0.002048      0.001153
      3.69173      2.12724      5.97413         0.001733      0.003586      0.003654
      6.14690      2.15098      5.97172        -0.002437      0.001074      0.000928
     -0.00378      4.27835      5.98119         0.000297      0.001442     -0.000611
      2.45346      4.25241      5.98237         0.001162      0.000777     -0.002968
      4.93484      4.26434      5.96939         0.002385     -0.003846      0.000588
      0.89747      1.71244      8.07797        -0.001148      0.001102     -0.012587
      2.17530      1.78495      8.89477         0.000979     -0.001464     -0.003185
     -0.19189      2.55805      8.70946         0.002524      0.005654     -0.000946
      0.37156      0.32758      8.15109         0.002385      0.006050      0.005890
      2.57618      2.80767      8.87638         0.004719      0.007684     -0.003154
      1.96711      1.50553      9.94661         0.003939      0.004044      0.004092
      2.95774      1.11717      8.49632         0.002154      0.003411     -0.003326
      0.06666      3.62501      8.64608        -0.002073     -0.001273     -0.002061
     -0.32011      2.27828      9.77339         0.000518      0.000196      0.003349
     -1.17502      2.41531      8.21682         0.001769     -0.000908     -0.001886
     -2.56675      6.13360      8.23059         0.004928      0.000027      0.004927
 -----------------------------------------------------------------------------------
    total drift:                               -0.091061     -0.095642      0.292715


--------------------------------------------------------------------------------------------------------



  FREE ENERGIE OF THE ION-ELECTRON SYSTEM (eV)
  ---------------------------------------------------
  free  energy   TOTEN  =      -309.05837121 eV

  energy  without entropy=     -309.03441865  energy(sigma->0) =     -309.05238307
 


--------------------------------------------------------------------------------------------------------


    POTLOK:  cpu time    0.48: real time    0.48


--------------------------------------------------------------------------------------------------------


 stress matrix after NEB project (eV)
    -19.67815     -0.36180      0.29152
     -0.36180    -19.80207      0.19143
      0.29152      0.19143    -10.98581
  FORCES: max atom, RMS     0.012687    0.004783
  FORCE total and by dimension    0.032790    0.012587
  Stress total and by dimension   30.009073   19.802071


--------------------------------------------------------------------------------------------------------


  
 reached required accuracy - stopping structural energy minimisation
     LOOP+:  cpu time 2230.56: real time 2230.83
    4ORBIT:  cpu time    0.00: real time    0.00

 total amount of memory used by VASP on root node   182247. kBytes
========================================================================

   base      :      30000. kBytes
   nonlr-proj:       9714. kBytes
   fftplans  :       6203. kBytes
   grid      :      28885. kBytes
   one-center:       1461. kBytes
   wavefun   :     105984. kBytes
 
  
  
 General timing and accounting informations for this job:
 ========================================================
  
                  Total CPU time used (sec):     2238.348
                            User time (sec):     2236.440
                          System time (sec):        1.908
                         Elapsed time (sec):     2239.821
  
                   Maximum memory used (kb):      225708.
                   Average memory used (kb):           0.
  
                          Minor page faults:       246479
                          Major page faults:           63
                 Voluntary context switches:         1213
