/*--------------------------------*- C++ -*----------------------------------*\
  =========                 |
  \\      /  F ield         | OpenFOAM: The Open Source CFD Toolbox
   \\    /   O peration     | Website:  https://openfoam.org
    \\  /    A nd           | Version:  8
     \\/     M anipulation  |
\*---------------------------------------------------------------------------*/
FoamFile
{
    version     2.0;
    format      ascii;
    class       volScalarField;
    location    "0.3";
    object      CH3COCH3(s);
}
// * * * * * * * * * * * * * * * * * * * * * * * * * * * * * * * * * * * * * //

dimensions      [0 0 0 0 0 0 0];

internalField   uniform 0;

boundaryField
{
    reactingWall
    {
        type            fixedValue;
        value           nonuniform List<scalar> 
75
(
3.45096527000440025e-20
8.26979581200486919e-20
1.46194423798260984e-19
2.02042816280857313e-19
2.45210913160422805e-19
2.82273563842754202e-19
3.1855024168766648e-19
3.53188867569240411e-19
3.8583939399894996e-19
4.16272742027866849e-19
4.4432609751005123e-19
4.69791882296273327e-19
4.92462931430971299e-19
5.12176110439562827e-19
5.28780456422564698e-19
5.4210736732110907e-19
5.52021087009687086e-19
5.58544698113519892e-19
5.61609160458461773e-19
5.61320547579193952e-19
5.58539633769181552e-19
5.53352760432456413e-19
5.44651473978332643e-19
5.32235472783926151e-19
5.16296350268292662e-19
4.97113683396089132e-19
4.75063535619905786e-19
4.50675352294544668e-19
4.24410321740850547e-19
3.96004156008115953e-19
3.63863506888574165e-19
3.26958283777294321e-19
2.93347703884788128e-19
2.62766551606409026e-19
2.35111900646720575e-19
2.10343914496950025e-19
1.88371983080585492e-19
1.6897238789953851e-19
1.51957570678744769e-19
1.37046476458615843e-19
1.24028559111200181e-19
1.12515416404872646e-19
1.02370505776124624e-19
9.34744857545470944e-20
8.70682575924175044e-20
8.04114365581419063e-20
7.36374267768974207e-20
6.68854604037393995e-20
6.0433859368256252e-20
5.45931044424702579e-20
4.94242029682456324e-20
4.46145452702242487e-20
4.017295795033582e-20
3.61117826399595568e-20
3.24156984395126494e-20
2.90681866029466036e-20
2.60495159481066071e-20
2.33490248096211364e-20
2.09468216726495767e-20
1.88026658717803857e-20
1.68738679876823969e-20
1.50737505800418339e-20
1.33797154691604573e-20
1.18239390856246407e-20
1.04110902704697925e-20
9.14232176431583397e-21
8.01462026686409455e-21
7.03612430336331154e-21
6.19111689157163146e-21
5.45329763533577257e-21
4.7910837251181332e-21
4.17683045893790514e-21
3.61004931292554592e-21
3.04711590993985487e-21
2.42786350416407111e-21
)
;
    }
    inertWall
    {
        type            zeroGradient;
    }
    inlet
    {
        type            fixedValue;
        value           uniform 0;
    }
    outlet
    {
        type            zeroGradient;
    }
    defaultFaces
    {
        type            empty;
    }
}


// ************************************************************************* //
