/*--------------------------------*- C++ -*----------------------------------*\
  =========                 |
  \\      /  F ield         | OpenFOAM: The Open Source CFD Toolbox
   \\    /   O peration     | Website:  https://openfoam.org
    \\  /    A nd           | Version:  8
     \\/     M anipulation  |
\*---------------------------------------------------------------------------*/
FoamFile
{
    version     2.0;
    format      ascii;
    class       volScalarField;
    location    "0.3";
    object      CH3CHOCH3(s);
}
// * * * * * * * * * * * * * * * * * * * * * * * * * * * * * * * * * * * * * //

dimensions      [0 0 0 0 0 0 0];

internalField   uniform 0;

boundaryField
{
    reactingWall
    {
        type            fixedValue;
        value           nonuniform List<scalar> 
75
(
9.59235757207177158e-08
9.44462142775503757e-08
9.27343451043509345e-08
9.08093991521518211e-08
8.90192122191273831e-08
8.7266118917445552e-08
8.54157332811791245e-08
8.34262256655169541e-08
8.13912928263215403e-08
7.93347017603099845e-08
7.7247941567124652e-08
7.51179776930474999e-08
7.29459990157481092e-08
7.07453056473039651e-08
6.85022258423460186e-08
6.62124595672919999e-08
6.38756639177049997e-08
6.14979963072693125e-08
5.90942803261266664e-08
5.66718098239292715e-08
5.42338594015013851e-08
5.17846977734408086e-08
4.9328426766465708e-08
4.68679519888877461e-08
4.44108243238479893e-08
4.1965244887883312e-08
3.95352763062933258e-08
3.71371791548203292e-08
3.47831268864496469e-08
3.24934021633918028e-08
3.02981307145097386e-08
2.82281696704565389e-08
2.63013646092777459e-08
2.45071324581010354e-08
2.28457141226072413e-08
2.13062271691955941e-08
1.98853974135270235e-08
1.85816003487928967e-08
1.73883298757070265e-08
1.6294940893903352e-08
1.5294387764410358e-08
1.43726052519615196e-08
1.35200819118939135e-08
1.2726423721075621e-08
1.19796070294094149e-08
1.12675732093982292e-08
1.05902535058626564e-08
9.94460158103313346e-09
9.33337889020860182e-09
8.75213996186410627e-09
8.19081562707707854e-09
7.64716213625362653e-09
7.12330011980332345e-09
6.62040579329806956e-09
6.13974057545825094e-09
5.68166893127589453e-09
5.24532685172844678e-09
4.83073569589374442e-09
4.44121899298292614e-09
4.07998077832570948e-09
3.7502249134472612e-09
3.44949293469268151e-09
3.16953803637939505e-09
2.90530955247283042e-09
2.65436345438627677e-09
2.41426150278703076e-09
2.18443005469143435e-09
1.96637893500045112e-09
1.7650592378629996e-09
1.58352756047266227e-09
1.42426716674342931e-09
1.28379699603015565e-09
1.15393334344414573e-09
1.036534259834291e-09
8.68553106788821545e-10
)
;
    }
    inertWall
    {
        type            zeroGradient;
    }
    inlet
    {
        type            fixedValue;
        value           uniform 0;
    }
    outlet
    {
        type            zeroGradient;
    }
    defaultFaces
    {
        type            empty;
    }
}


// ************************************************************************* //
