/*--------------------------------*- C++ -*----------------------------------*\
  =========                 |
  \\      /  F ield         | OpenFOAM: The Open Source CFD Toolbox
   \\    /   O peration     | Website:  https://openfoam.org
    \\  /    A nd           | Version:  8
     \\/     M anipulation  |
\*---------------------------------------------------------------------------*/
FoamFile
{
    version     2.0;
    format      ascii;
    class       volScalarField;
    location    "0.3";
    object      CH3COHCH3(s);
}
// * * * * * * * * * * * * * * * * * * * * * * * * * * * * * * * * * * * * * //

dimensions      [0 0 0 0 0 0 0];

internalField   uniform 0;

boundaryField
{
    reactingWall
    {
        type            fixedValue;
        value           nonuniform List<scalar> 
75
(
3.00088938011293563e-12
2.98829206730908789e-12
2.97326294930358085e-12
2.95539786361127847e-12
2.93757180527993081e-12
2.91946786961670965e-12
2.90029359527325775e-12
2.87827836590303759e-12
2.85433458436673823e-12
2.8282542998135623e-12
2.80028178867013551e-12
2.77027383261893066e-12
2.73805288864489156e-12
2.70346171490489924e-12
2.66614759308884715e-12
2.62573332838931062e-12
2.58183098929876228e-12
2.53413574395517039e-12
2.48267080056341907e-12
2.42730867946280271e-12
2.36778696935677496e-12
2.30383373763393664e-12
2.23524152407239262e-12
2.16180634484337663e-12
2.08350685074768613e-12
2.00047136274153375e-12
1.9127548547690269e-12
1.82106136998575664e-12
1.72615501354575515e-12
1.62947966346467924e-12
1.5332536151365217e-12
1.4403454153998335e-12
1.35237160520441759e-12
1.26920812031615999e-12
1.19110564823576822e-12
1.11795702577224612e-12
1.04987226495070628e-12
9.86843486324052553e-13
9.28829128234152897e-13
8.7546658692840159e-13
8.26553254517780913e-13
7.81470371208476213e-13
7.39848619932340315e-13
7.01134594524923526e-13
6.64606001562953875e-13
6.29503731469009322e-13
5.95918754457194406e-13
5.63785823538351034e-13
5.33386482964315866e-13
5.04410588935591042e-13
4.76047942251056541e-13
4.48085152967061405e-13
4.20676013832513096e-13
3.93930669426943884e-13
3.67953661990370517e-13
3.42806972046248095e-13
3.18466890901000976e-13
2.94987016086474019e-13
2.7268358420571727e-13
2.5188714394493146e-13
2.3294557237087943e-13
2.157458544036817e-13
1.99681985009699559e-13
1.843818315195086e-13
1.69663004253591362e-13
1.55340776723205952e-13
1.4136821334253582e-13
1.27882857681184437e-13
1.15310936783978902e-13
1.03949174482438513e-13
9.4054848760098846e-14
8.53856791597708056e-14
7.74287653595785583e-14
7.00340960589175473e-14
5.93406222373918028e-14
)
;
    }
    inertWall
    {
        type            zeroGradient;
    }
    inlet
    {
        type            fixedValue;
        value           uniform 0;
    }
    outlet
    {
        type            zeroGradient;
    }
    defaultFaces
    {
        type            empty;
    }
}


// ************************************************************************* //
