/*--------------------------------*- C++ -*----------------------------------*\
  =========                 |
  \\      /  F ield         | OpenFOAM: The Open Source CFD Toolbox
   \\    /   O peration     | Website:  https://openfoam.org
    \\  /    A nd           | Version:  8
     \\/     M anipulation  |
\*---------------------------------------------------------------------------*/
FoamFile
{
    version     2.0;
    format      ascii;
    class       volScalarField;
    location    "0.3";
    object      CH3CHOHCH3(s);
}
// * * * * * * * * * * * * * * * * * * * * * * * * * * * * * * * * * * * * * //

dimensions      [0 0 0 0 0 0 0];

internalField   uniform 0;

boundaryField
{
    reactingWall
    {
        type            fixedValue;
        value           nonuniform List<scalar> 
75
(
4.94865805026739943e-07
4.94865792458615314e-07
4.94865778138506584e-07
4.94865762153018847e-07
4.94865746447261941e-07
4.94865731759521536e-07
4.94865716640133882e-07
4.94865697245689627e-07
4.94865662812452268e-07
4.94865581243527473e-07
4.94865361540114414e-07
4.94864764913132535e-07
4.94863209180936368e-07
4.9485937086434907e-07
4.9485044616758043e-07
4.94830952876732944e-07
4.9479096985684992e-07
4.94710904845132481e-07
4.94551317821265362e-07
4.94305320907775269e-07
4.9400963494521694e-07
4.93620319284675956e-07
4.92995668647042476e-07
4.92004703919086571e-07
4.90474459453744326e-07
4.88151420908505625e-07
4.84676249576890551e-07
4.7955620089088614e-07
4.72127391695646288e-07
4.61505955217656179e-07
4.46582447210039715e-07
4.27144373871362837e-07
4.07919627566445064e-07
3.89037695248939117e-07
3.70563006943695874e-07
3.52559841229576138e-07
3.35156947329076993e-07
3.1842128024501995e-07
3.02514380164845192e-07
2.87528217560869773e-07
2.73665839033194991e-07
2.60839711672864612e-07
2.49147409079518238e-07
2.38678395699164095e-07
2.31089218966448826e-07
2.23172655756383298e-07
2.15021754215376086e-07
2.05572104949615218e-07
1.95571737320531109e-07
1.87417461380556678e-07
1.8091081820602917e-07
1.74562245871692843e-07
1.68139425433918092e-07
1.61715649492033936e-07
1.55394243095346452e-07
1.49250530272967518e-07
1.43155017070371546e-07
1.36567998791505969e-07
1.29034522111360828e-07
1.20634853670187017e-07
1.11843078439805707e-07
1.04449527552634355e-07
9.86647297288772113e-08
9.35188601266229158e-08
8.8971753363172326e-08
8.48817761466562242e-08
8.079013607818592e-08
7.58823285101807053e-08
7.00695122161954137e-08
6.36059906668711676e-08
5.7323593303531964e-08
5.24643276937333452e-08
4.88958246302273139e-08
4.5927115590838229e-08
4.17384208650514832e-08
)
;
    }
    inertWall
    {
        type            zeroGradient;
    }
    inlet
    {
        type            fixedValue;
        value           uniform 0;
    }
    outlet
    {
        type            zeroGradient;
    }
    defaultFaces
    {
        type            empty;
    }
}


// ************************************************************************* //
