/*--------------------------------*- C++ -*----------------------------------*\
  =========                 |
  \\      /  F ield         | OpenFOAM: The Open Source CFD Toolbox
   \\    /   O peration     | Website:  https://openfoam.org
    \\  /    A nd           | Version:  8
     \\/     M anipulation  |
\*---------------------------------------------------------------------------*/
FoamFile
{
    version     2.0;
    format      ascii;
    class       volScalarField;
    location    "0.3";
    object      gas::MW;
}
// * * * * * * * * * * * * * * * * * * * * * * * * * * * * * * * * * * * * * //

dimensions      [1 0 0 0 -1 0 0];

internalField   nonuniform List<scalar> 
1800
(
29.2637880557518812
29.2637880557518812
29.2637880557518812
29.2637880557518812
29.2637880557518812
29.2637880557518812
29.2637880557518812
29.2637880557518884
29.2637880557518884
29.2637880557518812
29.2637880557518812
29.2637880557518812
29.2637880557518741
29.2637880557518208
29.2637880557514478
29.2637880557518812
29.2637880557518812
29.2637880557518812
29.2637880557518812
29.2637880557518812
29.2637880557518812
29.2637880557518812
29.2637880557518812
29.2637880557518812
29.2637880557518812
29.2637880557518884
29.2637880557518884
29.2637880557518884
29.2637880557518741
29.2637880557518386
29.2637880557518812
29.2637880557518812
29.2637880557518741
29.2637880557518812
29.2637880557518812
29.2637880557518812
29.2637880557518812
29.2637880557518884
29.2637880557518884
29.2637880557518919
29.2637880557518812
29.2637880557518812
29.2637880557518812
29.2637880557518812
29.2637880557518741
29.2637880557518812
29.2637880557518812
29.2637880557518884
29.2637880557518812
29.2637880557518812
29.2637880557518812
29.2637880557518812
29.2637880557518919
29.2637880557518812
29.2637880557518884
29.2637880557518812
29.2637880557518812
29.2637880557518812
29.2637880557518812
29.2637880557518812
29.2637880557518812
29.2637880557518884
29.2637880557518812
29.2637880557518812
29.2637880557518812
29.2637880557518812
29.2637880557518812
29.2637880557518812
29.2637880557518812
29.2637880557518741
29.2637880557518812
29.2637880557518812
29.2637880557518812
29.2637880557518812
29.2637880557518812
29.2637880557518812
29.2637880557518812
29.2637880557518812
29.2637880557518812
29.2637880557518812
29.2637880557518812
29.2637880557518812
29.2637880557518812
29.2637880557518884
29.2637880557518812
29.2637880557518884
29.2637880557518884
29.2637880557518884
29.2637880557518812
29.2637880557518812
29.2637880557518812
29.2637880557518812
29.2637880557518812
29.2637880557518812
29.2637880557518812
29.2637880557518812
29.2637880557518812
29.2637880557518812
29.2637880557518812
29.2637880557518884
29.2637880557518812
29.2637880557518812
29.2637880557518812
29.2637880557518812
29.2637880557518812
29.2637880557518812
29.2637880557518812
29.2637880557518812
29.2637880557518812
29.2637880557518812
29.2637880557518812
29.2637880557518812
29.2637880557518812
29.2637880557518812
29.2637880557518812
29.2637880557518884
29.2637880557518884
29.2637880557518812
29.2637880557518812
29.2637880557518812
29.2637880557518812
29.2637880557518812
29.2637880557518812
29.2637880557518812
29.2637880557518812
29.2637880557518884
29.2637880557518884
29.2637880557518919
29.2637880557518884
29.2637880557518812
29.2637880557518812
29.2637880557518812
29.2637880557518812
29.2637880557518812
29.2637880557518812
29.2637880557518812
29.2637880557518812
29.2637880557518812
29.2637880557518812
29.2637880557518812
29.2637880557518812
29.2637880557518884
29.2637880557518884
29.2637880557518812
29.2637880557518884
29.2637880557518812
29.2637880557518812
29.2637880557518812
29.2637880557518812
29.2637880557518884
29.2637880557518812
29.2637880557518884
29.2637880557518884
29.2637880557518812
29.2637880557518812
29.2637880557518812
29.2637880557518884
29.2637880557518884
29.2637880557518884
29.2637880557518884
29.2637880557518812
29.2637880557518812
29.2637880557518812
29.2637880557518884
29.2637880557518884
29.2637880557518812
29.2637880557518812
29.2637880557518884
29.2637880557518812
29.2637880557518812
29.2637880557518812
29.2637880557518812
29.2637880557518812
29.2637880557518812
29.2637880557518812
29.2637880557518812
29.2637880557518884
29.2637880557518812
29.2637880557518884
29.2637880557518884
29.2637880557518812
29.2637880557518812
29.2637880557518812
29.2637880557518812
29.2637880557518812
29.2637880557518812
29.2637880557518812
29.2637880557518812
29.2637880557518812
29.2637880557518812
29.2637880557518884
29.2637880557518884
29.2637880557518884
29.2637880557518884
29.2637880557518812
29.2637880557518812
29.2637880557518812
29.2637880557518812
29.2637880557518812
29.2637880557518812
29.2637880557518812
29.2637880557518812
29.2637880557518812
29.2637880557518884
29.2637880557518919
29.2637880557518884
29.2637880557518812
29.2637880557518812
29.2637880557518812
29.2637880557518812
29.2637880557518812
29.2637880557518812
29.2637880557518812
29.2637880557518812
29.2637880557518812
29.2637880557518812
29.2637880557518884
29.2637880557518812
29.2637880557518884
29.2637880557518919
29.2637880557518812
29.2637880557518812
29.2637880557518812
29.2637880557518812
29.2637880557518812
29.2637880557518812
29.2637880557518812
29.2637880557518812
29.2637880557518812
29.2637880557518812
29.2637880557518812
29.2637880557518812
29.2637880557518812
29.2637880557518812
29.2637880557518812
29.2637880557518812
29.2637880557518812
29.2637880557518812
29.2637880557518812
29.2637880557518812
29.2637880557518812
29.2637880557518884
29.2637880557518812
29.2637880557518812
29.2637880557518812
29.2637880557518812
29.2637880557518812
29.2637880557518812
29.2637880557518884
29.2637880557518812
29.2637880557518812
29.2637880557518812
29.2637880557518812
29.2637880557518812
29.2637880557518812
29.2637880557518812
29.2637880557518812
29.2637880557518812
29.2637880557518812
29.2637880557518812
29.2637880557518812
29.2637880557518812
29.2637880557518812
29.2637880557518812
29.2637880557518812
29.2637880557518812
29.2637880557518812
29.2637880557518812
29.2637880557518812
29.2637880557518741
29.2637880557518812
29.2637880557518884
29.2637880557518812
29.2637880557518812
29.2637880557518812
29.2637880557518812
29.2637880557518812
29.2637880557518812
29.2637880557518812
29.2637880557518812
29.2637880557518884
29.2637880557518812
29.2637880557518812
29.2637880557518706
29.2637880557517249
29.2637880557518812
29.2637880557518812
29.2637880557518812
29.2637880557518812
29.2637880557518812
29.2637880557518884
29.2637880557518812
29.2637880557518884
29.2637880557518812
29.2637880557518812
29.2637880557518812
29.2637880557518741
29.2637880557518741
29.2637880557517995
29.2637880557496892
29.2637880557502541
29.2637880557455112
29.2637880557259962
29.2637880556448984
29.263788055310691
29.263788053966703
29.2637880487577036
29.2637880294805512
29.2637879618277807
29.2637877378428364
29.2637870417037291
29.2637850250228304
29.2637796433349564
29.2637666288459499
29.2637387005356722
29.2636830482524459
29.26357459381558
29.2633687524167669
29.2629886419725196
29.2623060142321947
29.2611144263578957
29.259095576183082
29.2557822948349084
29.2507211668118252
29.2433429512798533
29.2330407718709431
29.2193420587237789
29.2018531859071402
29.1802672620214523
29.1544929461207403
29.1245995091010847
29.0907597823903075
29.0532919212631668
29.012702962171609
28.9697314048708208
28.9253412893908681
28.8806603397984176
28.8368872529604339
28.7950456087127407
28.7558322444126055
28.719703266334129
28.6868159899141304
28.6569876083007777
28.6301584373202154
28.6064770628619947
28.5857685692199759
28.5659454873011285
28.5421595576208382
28.5173294093462211
28.4955900136728602
28.4785414529192202
28.4613910853658041
28.4435880714706038
28.4259978951890027
28.4092084037206014
28.3931569074412167
28.3775081777350557
28.3614614661465794
28.3429238720320775
28.3215149884544815
28.2999756526596578
28.2846765292836864
28.2708995675576773
28.257916814954914
28.2460036233890506
28.2353001483489372
28.223384290828168
28.2089900425747864
28.1927621042554151
28.1787174578376209
28.1682905191593917
28.1560563157977413
28.1412122330998571
28.1319584481809351
28.1221279748156405
29.2637880557517143
29.2637880557512702
29.2637880557495329
29.2637880557426691
29.2637880557155086
29.263788055609897
29.2637880552116094
29.263788053769396
29.2637880487914721
29.2637880325006066
29.2637879821850682
29.2637878363792723
29.2637874435854926
29.2637864737797919
29.2637843608108241
29.2637801599644227
29.2637720114492446
29.2637566248418679
29.2637283266572723
29.2636776140342469
29.2635890678757988
29.2634385347521651
29.2631895916285281
29.262789314520834
29.2621684397835971
29.2612176023629225
29.259796772661872
29.257917111071535
29.2553727221814448
29.2519809903255776
29.2477271108917947
29.2424815048217397
29.2361289476075719
29.2285545882801543
29.2197627355359906
29.2098066239572027
29.1984168303836888
29.1858828038860239
29.1727719809702677
29.1579635856010668
29.1415563291182913
29.1267607176984136
29.1111073296067886
29.090823303167884
29.0702620259870983
29.0517164033677133
29.0329215058401431
29.0181265234641792
29.0055762005245015
28.9888859035808721
28.9660188084703165
28.9476311689901884
28.9315713737590841
28.9103751429674674
28.8836536803397053
28.861946502104999
28.8504897875168211
28.8426438129066263
28.832561454667232
28.8188128920527049
28.8004539298334983
28.7786169405818946
28.748935325133516
28.7122747571836392
28.6762245675765755
28.6554997893683421
28.6470636578896851
28.6371775358670035
28.6230706344325192
28.6029634662085357
28.5752243676812014
28.551371854855546
28.5336305078845314
28.5049569461600569
28.4704899430976894
29.2637880557518635
29.2637880557518173
29.2637880557516361
29.2637880557509646
29.2637880557483996
29.2637880557387078
29.2637880557030314
29.2637880555762209
29.2637880551448397
29.2637880537476285
29.2637880494592295
29.2637880370528443
29.263788003490955
29.2637879197139092
29.2637877354631293
29.2637873692413173
29.263786659933956
29.2637853233843117
29.2637828698361098
29.2637784764670741
29.2637707979869468
29.2637576972832001
29.2637358791576432
29.2637004086923973
29.2636439920528595
29.2635557126418639
29.26341876939561
29.2632312347857138
29.2629742542621827
29.2625936469830847
29.2621188377789139
29.2614617773754588
29.2606776273829325
29.2596611212345401
29.2582483480545967
29.2568015749529877
29.2551308784968249
29.2527664105017742
29.2502183851785134
29.2477849039602127
29.2444494019510017
29.240610498053595
29.2371815427419364
29.2327327109242994
29.2273279754569195
29.2224464360168987
29.2180642009033171
29.2138269939718498
29.2095328282638782
29.2037623535602968
29.1958286885197467
29.1872631800080775
29.1812864660442415
29.1739145195150549
29.163735642949181
29.1571687711477097
29.1517104441120836
29.1448301381101693
29.1391772399022138
29.1343496334172727
29.1277373298529234
29.1186688672571883
29.1097004046680752
29.097838921164243
29.0842144813439667
29.0731805909142658
29.0622691943824343
29.0518954767076139
29.0419566246794574
29.03216464601784
29.0225347978392811
29.0107836210945393
28.9940657272229956
28.9744354102375077
28.9480119613812121
29.2637880557518812
29.2637880557518741
29.2637880557518564
29.2637880557517924
29.2637880557515615
29.2637880557506982
29.2637880557476322
29.2637880557369705
29.2637880557013652
29.2637880555876251
29.2637880552418217
29.2637880542460671
29.2637880515494757
29.2637880447699636
29.2637880297850685
29.2637880000149977
29.2637879424420042
29.2637878341765898
29.2637876358004618
29.2637872809380148
29.2637866603595214
29.2637855983771615
29.2637838184688981
29.2637808934011083
29.2637761719396821
29.2637686705888278
29.263756952482435
29.2637395123577626
29.26371534370044
29.2636792394425669
29.2636299357840848
29.2635588206126194
29.2634746336007296
29.2633555804005923
29.2631825582339893
29.2629934504055065
29.2627748635660012
29.2624606271206993
29.2620551119387109
29.2616945469513929
29.2612070401049813
29.2605291541131649
29.2598939117779224
29.2592058294829798
29.2582769111994274
29.2571709140943668
29.2562539907965338
29.2551413926359025
29.2537907370573258
29.2525967135127019
29.25112433718256
29.2490815238850423
29.2473308708001518
29.2455426430628158
29.2430406742242077
29.2408853585940243
29.2394920470200574
29.2379394080825712
29.2366150271001715
29.2350287138442049
29.2328657010244548
29.2303001185744868
29.2279340862652361
29.2247792905324388
29.2211341120940489
29.2183101784035522
29.2158006311723462
29.2133992053282832
29.2101997719696023
29.2068914857464392
29.2036832638217874
29.199769732200167
29.1947891157966843
29.1880610281418313
29.1783217305650169
29.2637880557518812
29.2637880557518812
29.2637880557518741
29.2637880557518741
29.2637880557518528
29.2637880557517818
29.263788055751526
29.2637880557506378
29.2637880557477565
29.2637880557386652
29.2637880557112702
29.2637880556327907
29.2637880554202425
29.263788054883296
29.2637880536900319
29.2637880513178708
29.2637880467285179
29.2637880380966209
29.2637880222753104
29.2637879939501033
29.2637879443294722
29.2637878591627398
29.2637877157999498
29.2637874789127714
29.263787094425016
29.2637864813922484
29.2637855224696217
29.263784053413147
29.2637818741246143
29.2637786389417656
29.2637739172240146
29.2637669992628169
29.2637584308679273
29.2637459304481276
29.263727295880269
29.2637059665171293
29.2636800236130412
29.2636427999202162
29.2635902016020815
29.2635420278976959
29.2634756865310592
29.2633806039923456
29.2632900758086087
29.2631820273479129
29.263049659593996
29.2628732011452577
29.2627116976503281
29.2625384967498583
29.2623005575297448
29.2620390574013953
29.2617648522023934
29.2613900140777901
29.2609814382746833
29.2606314194825039
29.260160990544442
29.259648606060118
29.259271066547182
29.2588664522032644
29.2583961121025595
29.2579577615554811
29.2574657515799963
29.2567996849313907
29.2561424346267884
29.2555544039402307
29.2547774623630659
29.2539748109905346
29.2535044781764846
29.252998886380027
29.2523506804166402
29.2517269567068041
29.25090167516219
29.2499146125226908
29.2485943830138027
29.2468669783990194
29.2440701303679305
29.2637880557518884
29.2637880557518919
29.2637880557518884
29.2637880557518812
29.2637880557518812
29.2637880557518741
29.2637880557518528
29.2637880557517818
29.2637880557515615
29.2637880557508581
29.2637880557487726
29.2637880557428254
29.2637880557267351
29.2637880556859713
29.2637880555948442
29.2637880554134711
29.2637880550620686
29.2637880544001732
29.2637880531849888
29.2637880510049051
29.2637880471754421
29.2637880405793602
29.2637880294258217
29.2637880108944337
29.2637879806208403
29.2637879319786904
29.2637878551321045
29.2637877358624188
29.263787553895348
29.2637872800905576
29.2637868735038822
29.2637862708054293
29.2637854494451126
29.2637842389855294
29.2637824294347517
29.2637802868158658
29.2637774830825634
29.2637734603311017
29.2637676523357619
29.2637619252005123
29.263753948656035
29.2637424102854204
29.2637305141871771
29.2637170756340304
29.263699023042463
29.263674400979621
29.2636511438275271
29.2636234548478704
29.2635859251560397
29.263546347463226
29.2635031997371016
29.2634451527498385
29.2633783896877233
29.2633153759288831
29.2632346855915628
29.2631350228037341
29.2630498645411699
29.2629741387466602
29.2628740381631438
29.2627645278158504
29.2626599802409793
29.262523358274926
29.2623693347104172
29.2622392719888822
29.2620992678670788
29.2619072453917681
29.2617646081895302
29.261661897681531
29.2615540704332844
29.2614130206041381
29.2612210483563544
29.2609671572152266
29.2606188776638483
29.2601033470619463
29.2592365857457715
29.2637880557518812
29.2637880557518812
29.2637880557518741
29.2637880557518812
29.2637880557518812
29.2637880557518812
29.2637880557518812
29.2637880557518812
29.2637880557518564
29.2637880557518102
29.2637880557516539
29.2637880557512275
29.2637880557500623
29.2637880557471206
29.2637880557404841
29.2637880557272609
29.2637880557015784
29.2637880556530803
29.2637880555638077
29.2637880554031291
29.2637880551198677
29.2637880546298952
29.2637880537972777
29.263788052406035
29.2637880501185279
29.2637880464156943
29.2637880405134538
29.2637880312480156
29.2637880169185927
29.2637879950672861
29.2637879621961901
29.2637879133678247
29.2637878417123396
29.2637877363345318
29.26378757953103
29.2637873827041268
29.2637871062118897
29.2637867136067058
29.2637861431956416
29.2637855297321998
29.2637846661522971
29.263783417101056
29.2637820540204281
29.2637804742834327
29.2637783351617387
29.26377540215789
29.2637724202281255
29.263768895732845
29.2637641649449947
29.26375846159657
29.2637522812733302
29.263744049221124
29.2637342338613031
29.263724501240084
29.2637120389216214
29.2636960239415167
29.2636814723237251
29.2636680512925373
29.2636504292446595
29.263630196317397
29.2636087306071211
29.2635828328251968
29.2635541529377683
29.2635254338657447
29.2634941393976753
29.2634619721942819
29.2634328219569575
29.2634018964062541
29.2633617268541144
29.2633074537192392
29.2632320609428689
29.2631232305139051
29.2629578756496862
29.2626885710339053
29.2622082942032087
29.2637880557518812
29.2637880557518812
29.2637880557518812
29.2637880557518812
29.2637880557518812
29.2637880557518812
29.2637880557518812
29.2637880557518812
29.2637880557518741
29.2637880557518812
29.2637880557518635
29.2637880557518386
29.2637880557517569
29.2637880557515544
29.2637880557511032
29.263788055750183
29.2637880557484031
29.2637880557450245
29.2637880557387859
29.2637880557275132
29.2637880557075647
29.2637880556728796
29.2637880556136167
29.2637880555140057
29.2637880553491314
29.2637880550802514
29.2637880546480282
29.2637880539629656
29.2637880528919574
29.2637880512397892
29.2637880487241482
29.2637880449415704
29.2637880393229395
29.2637880310539522
29.2637880190204278
29.263788001918865
29.2637879777634069
29.2637879434876034
29.2637878940078728
29.2637878350877685
29.2637877520832355
29.26378763367169
29.2637874952858716
29.2637873295378945
29.2637871029195615
29.2637867896324977
29.2637864442969189
29.2637860218128196
29.2637854568507336
29.2637847572955501
29.2637839917654965
29.2637829717106968
29.2637817566162184
29.2637804362209764
29.2637786989448401
29.2637764961992239
29.2637742747163045
29.2637719584490057
29.2637691358668341
29.2637658470793447
29.2637621294356904
29.2637578359968487
29.2637529794219304
29.2637473678808604
29.2637402487776015
29.2637307674195739
29.2637179812020101
29.2637002877397805
29.2636749769750786
29.2636375349993649
29.2635803927288656
29.2634904842732197
29.2633439038991234
29.263093123819111
29.2626347779613205
29.2637880557518812
29.2637880557518812
29.2637880557518812
29.2637880557518812
29.2637880557518812
29.2637880557518812
29.2637880557518812
29.2637880557518812
29.2637880557518812
29.2637880557518812
29.2637880557518812
29.2637880557518812
29.2637880557518741
29.2637880557518635
29.2637880557518351
29.2637880557517676
29.2637880557516503
29.2637880557514301
29.2637880557510144
29.2637880557502719
29.2637880557489396
29.2637880557466055
29.263788055742598
29.2637880557358194
29.2637880557245289
29.2637880557059766
29.2637880556759029
29.2637880556277992
29.2637880555518635
29.2637880554334906
29.2637880552512151
29.2637880549738973
29.2637880545568763
29.2637880539366755
29.2637880530249568
29.2637880517041289
29.2637880498108913
29.2637880471225955
29.2637880433475424
29.2637880381435806
29.263788030988529
29.263788021133454
29.2637880085884881
29.2637879923223743
29.2637879705727002
29.2637879411311665
29.263787905043106
29.2637878608067901
29.2637878018906399
29.2637877254010341
29.2637876344078762
29.2637875163213934
29.2637873694913218
29.2637871915525167
29.2637869646940416
29.2637866875005876
29.2637863609036621
29.2637859474784108
29.2637853970318211
29.2637846589289481
29.2637836569358107
29.2637822708143673
29.2637803089155675
29.2637774617812205
29.2637732263312031
29.2637667863864444
29.2637568222670268
29.2637411932717662
29.2637164200881692
29.2636768306401791
29.2636131433784499
29.2635100416510845
29.2633413684288328
29.2630580148578581
29.2625518668277778
29.2637880557518919
29.2637880557518919
29.2637880557518919
29.2637880557518884
29.2637880557518812
29.2637880557518812
29.2637880557518884
29.2637880557518884
29.2637880557518884
29.2637880557518884
29.2637880557518812
29.2637880557518812
29.2637880557518812
29.2637880557518812
29.2637880557518812
29.2637880557518741
29.2637880557518706
29.2637880557518564
29.263788055751828
29.2637880557517818
29.2637880557516894
29.2637880557515437
29.2637880557512737
29.2637880557508225
29.2637880557500623
29.2637880557488081
29.2637880557467476
29.2637880557434258
29.2637880557381251
29.2637880557297656
29.2637880557167342
29.2637880556966365
29.2637880556659979
29.2637880556197736
29.263788055550755
29.2637880554487708
29.2637880552996208
29.263788055083598
29.26378805477394
29.2637880543356985
29.2637880537206279
29.2637880528642782
29.2637880516868307
29.2637880500775083
29.263788047871131
29.263788044845942
29.263788040721348
29.2637880351105224
29.2637880274552344
29.2637880169739759
29.2637880025599806
29.2637879825555309
29.2637879544985502
29.2637879146664268
29.2637878572357089
29.2637877731694864
29.2637876483810366
29.2637874606918196
29.2637871747751959
29.2637867337230695
29.2637860460281338
29.2637849645169936
29.2637832526083734
29.2637805302681961
29.2637761909656042
29.2637692423371334
29.2637580450347876
29.2637398778227151
29.2637102129721036
29.2636614365066983
29.2635805464452332
29.2634458148109537
29.263223634850501
29.2628942690526586
29.2626424481025964
29.2637880557518812
29.2637880557518884
29.2637880557518812
29.2637880557518812
29.2637880557518812
29.2637880557518812
29.2637880557518812
29.2637880557518812
29.2637880557518812
29.2637880557518812
29.2637880557518812
29.2637880557518812
29.2637880557518812
29.2637880557518812
29.2637880557518812
29.2637880557518812
29.2637880557518741
29.2637880557518741
29.2637880557518635
29.2637880557518457
29.2637880557518102
29.2637880557517569
29.263788055751661
29.2637880557514904
29.2637880557512098
29.2637880557507337
29.2637880557499557
29.2637880557486945
29.2637880557466588
29.2637880557434151
29.2637880557383099
29.263788055730334
29.2637880557180203
29.2637880556991625
29.2637880556705312
29.2637880556274332
29.2637880555630545
29.2637880554675966
29.2637880553270868
29.2637880551218004
29.2637880548237241
29.2637880543933981
29.2637880537750483
29.2637880528890868
29.2637880516204874
29.263788049805882
29.2637880472055691
29.263788043462732
29.263788038045675
29.2637880301956343
29.2637880187343811
29.2637880017404193
29.2637879760230994
29.2637879363300435
29.2637878728299761
29.2637877653093952
29.2637875688511784
29.2637873055926683
29.2637869875113488
29.263786428360131
29.2637854637603319
29.2637837974862194
29.2637808931220391
29.2637756226283337
29.2637696878578311
29.2637612348906906
29.2637488322558319
29.26372624420571
29.2636862688499768
29.2636160122259419
29.2634915219322203
29.2633635075295224
29.2632359793773134
29.2630962533437007
29.2629115889106011
29.2637880557518884
29.2637880557518884
29.2637880557518919
29.2637880557518884
29.2637880557518812
29.2637880557518812
29.2637880557518812
29.2637880557518812
29.2637880557518812
29.2637880557518812
29.2637880557518812
29.2637880557518812
29.2637880557518741
29.2637880557518741
29.2637880557518635
29.2637880557518528
29.2637880557518173
29.2637880557517427
29.2637880557516183
29.2637880557513803
29.263788055750954
29.2637880557502115
29.2637880557489289
29.2637880557467334
29.2637880557430634
29.2637880557369954
29.2637880557271153
29.2637880557112062
29.2637880556859109
29.263788055646156
29.2637880555843992
29.26378805548946
29.2637880553449925
29.2637880551272715
29.263788054802415
29.2637880543224895
29.2637880536199475
29.2637880526001553
29.2637880511320922
29.263788049038375
29.2637880460814301
29.2637880419413108
29.2637880361837297
29.2637880282335097
29.2637880174628862
29.2637880030894912
29.2637879839268322
29.2637879581767884
29.2637879232338882
29.2637878759961474
29.2637878108413361
29.2637877148810617
29.2637875546440149
29.2637874009418297
29.2637872454528392
29.2637870585203004
29.2637867679766401
29.2637863150111066
29.2637856115249697
29.2637844978543846
29.2637826909004701
29.2637796828679804
29.2637745037235071
29.2637650734769572
29.2637545527924807
29.2637403676997963
29.2637193394350703
29.2636930396158981
29.2636541100052234
29.2636176433015684
29.2635729407474017
29.2635034253290733
29.2634122418821789
29.2633048791292545
29.2631181326572118
29.2637880557518884
29.2637880557518884
29.2637880557518919
29.2637880557518919
29.2637880557518884
29.2637880557518812
29.2637880557518812
29.2637880557518812
29.2637880557518812
29.2637880557518812
29.2637880557518741
29.2637880557518706
29.2637880557518457
29.2637880557517818
29.2637880557516361
29.2637880557513341
29.2637880557507444
29.2637880557496111
29.2637880557475007
29.2637880557436461
29.2637880557367716
29.2637880557247314
29.2637880557040653
29.2637880556691705
29.2637880556111796
29.2637880555161942
29.2637880553626921
29.2637880551178498
29.2637880547324158
29.2637880541334603
29.263788053213819
29.2637880518167286
29.263788049714389
29.2637880465801992
29.2637880419557526
29.2637880352024311
29.2637880254220022
29.2637880113429745
29.2637879912200845
29.2637879630289781
29.2637879242324424
29.2637878713675583
29.2637877994097479
29.2637877013409096
29.2637875698459489
29.2637874073290369
29.2637871878661429
29.2637868734698081
29.2637863619452752
29.2637859188902354
29.2637854933928701
29.2637850179372094
29.2637843969493083
29.2637835944494569
29.2637825675048404
29.2637813086597305
29.2637796774782402
29.2637775714939465
29.2637748431579396
29.2637711452993088
29.2637659135736783
29.2637579624355659
29.2637444814751682
29.2637333577053944
29.2637223923257217
29.2637111131582017
29.2636972698244513
29.2636787522124955
29.2636560622839035
29.2636277749440055
29.2635876766505305
29.2635380293990401
29.2634688512173433
29.2633651255348965
29.2631889276453627
29.2637880557518812
29.2637880557518812
29.2637880557518812
29.2637880557518812
29.2637880557518812
29.2637880557518812
29.2637880557518812
29.2637880557518812
29.2637880557518741
29.2637880557518564
29.2637880557518031
29.263788055751661
29.2637880557512808
29.2637880557502932
29.2637880557479484
29.2637880557430918
29.2637880557335492
29.2637880557153061
29.2637880556813457
29.2637880556197025
29.263788055510318
29.2637880553202656
29.2637880549964358
29.2637880544546576
29.2637880535631041
29.2637880521169791
29.2637880498016152
29.2637880461419648
29.2637880404386657
29.2637880316760643
29.2637880183752053
29.2637879983623677
29.2637879684405
29.2637879240554462
29.263787859570165
29.2637877676351117
29.2637876374647412
29.263787453035274
29.2637871922971158
29.2637868326067405
29.2637863441062152
29.2637856741841915
29.2637847034709857
29.263783110000599
29.2637816195108051
29.2637801812393015
29.2637784524290936
29.2637762683927676
29.263773792620615
29.263770514858976
29.2637661476376074
29.2637606420226213
29.2637545760015705
29.2637471674905711
29.2637381680289685
29.2637267904405043
29.2637112000547255
29.2636871321365746
29.2636738685046502
29.2636611664346944
29.2636421969385268
29.2636133246489507
29.2635925081613877
29.2635738795243263
29.2635535975486931
29.2635316473354159
29.2635047341319563
29.2634728177844501
29.2634392167484805
29.2633960264851041
29.2633412933720223
29.2632822566196396
29.2632027359289886
29.2630872097687913
29.2628948668003304
29.2637880557518812
29.2637880557518812
29.2637880557518812
29.2637880557518812
29.2637880557518812
29.2637880557518812
29.2637880557518706
29.2637880557518386
29.2637880557517498
29.2637880557514727
29.2637880557506698
29.2637880557484102
29.2637880557423493
29.2637880557268808
29.2637880556899077
29.2637880556132117
29.2637880554626122
29.2637880551752687
29.2637880546425748
29.263788053680873
29.2637880519859408
29.2637880490637521
29.2637880441280878
29.2637880359521176
29.2637880226315055
29.2637880011959659
29.2637879670403791
29.2637879132746903
29.26378783068456
29.2637877067917458
29.2637875233159086
29.2637872523515519
29.2637868516098401
29.2637862601285939
29.2637854095179044
29.2637842083272233
29.2637824864152272
29.2637798787966652
29.2637754919788939
29.2637708122096178
29.2637657149085157
29.2637598418907245
29.2637523486775137
29.2637424047141721
29.2637309833902677
29.2637160516820742
29.263696307770882
29.2636741219698031
29.2636512321777431
29.2636227877801645
29.2635841404041166
29.2635423938801935
29.2634897195400541
29.2634174272503884
29.2633056939936758
29.2632444224647763
29.2631936811111473
29.2631323235802654
29.2630436766886106
29.2629062121159933
29.262828197531789
29.2627544209108557
29.2626760130764545
29.2625945372841905
29.2624932715074237
29.2623671661701366
29.262258950828361
29.2621651409694365
29.2620387270907116
29.2618987355255449
29.2617092164779855
29.2615390346684059
29.2613145532166641
29.2610482818950715
29.2606328014090309
29.2637880557518812
29.2637880557518812
29.2637880557518812
29.2637880557518812
29.2637880557518564
29.2637880557518031
29.2637880557516681
29.2637880557512275
29.2637880557498562
29.2637880557456462
29.2637880557332686
29.2637880556984484
29.2637880556051897
29.2637880553679395
29.263788054800294
29.2637880536139221
29.2637880512832922
29.2637880468419809
29.26378803863917
29.2637880239137438
29.2637879981340632
29.2637879539979657
29.2637878801003133
29.263787759975159
29.2637875687926261
29.2637872661685741
29.2637867879812958
29.2637860387217934
29.2637849026300678
29.2637832298569798
29.2637807791229498
29.2637771058915348
29.263771305944406
29.2637612513028387
29.2637496411947815
29.2637374760520608
29.2637213671239707
29.2636978207931371
29.2636678460774426
29.2636280154008581
29.2635749109801289
29.2635071338178676
29.2634313179371048
29.2633379753236262
29.2632218079641291
29.2630663334836036