/*--------------------------------*- C++ -*----------------------------------*\
  =========                 |
  \\      /  F ield         | OpenFOAM: The Open Source CFD Toolbox
   \\    /   O peration     | Website:  https://openfoam.org
    \\  /    A nd           | Version:  8
     \\/     M anipulation  |
\*---------------------------------------------------------------------------*/
FoamFile
{
    version     2.0;
    format      ascii;
    class       volScalarField;
    location    "0.3";
    object      gas::h;
}
// * * * * * * * * * * * * * * * * * * * * * * * * * * * * * * * * * * * * * //

dimensions      [0 2 -2 0 0 0 0];

internalField   nonuniform List<scalar> 
1800
(
-158553.580710883427
-158553.58071088334
-158553.58071088366
-158553.58071088366
-158553.580710883834
-158553.58071088366
-158553.580710883834
-158553.580710883951
-158553.580710883951
-158553.580710883602
-158553.580710883747
-158553.580710883514
-158553.580710882292
-158553.580710871232
-158553.580710789072
-158553.580710883747
-158553.580710883747
-158553.580710883427
-158553.58071088334
-158553.580710883311
-158553.580710883514
-158553.58071088366
-158553.580710883456
-158553.580710883456
-158553.580710883747
-158553.580710884096
-158553.580710883951
-158553.580710883951
-158553.580710882205
-158553.580710873648
-158553.580710883456
-158553.580710883456
-158553.580710883136
-158553.580710883602
-158553.580710883893
-158553.580710883776
-158553.580710883834
-158553.580710884213
-158553.580710884213
-158553.580710884416
-158553.580710883893
-158553.580710883747
-158553.580710883747
-158553.580710883572
-158553.580710882292
-158553.580710883776
-158553.580710883747
-158553.580710884184
-158553.580710883747
-158553.580710883572
-158553.580710883514
-158553.580710883834
-158553.580710884358
-158553.580710883834
-158553.580710883951
-158553.580710883776
-158553.580710883572
-158553.580710883602
-158553.580710883427
-158553.580710883194
-158553.580710883893
-158553.580710884184
-158553.580710883747
-158553.580710883514
-158553.580710883194
-158553.580710883456
-158553.580710883427
-158553.580710883136
-158553.580710883194
-158553.580710883136
-158553.580710883572
-158553.580710883776
-158553.580710883572
-158553.580710883456
-158553.580710883572
-158553.580710883747
-158553.580710883834
-158553.580710883776
-158553.580710883776
-158553.58071088366
-158553.580710883834
-158553.580710883747
-158553.580710883834
-158553.580710883951
-158553.580710883834
-158553.580710884271
-158553.580710884213
-158553.580710884038
-158553.580710883834
-158553.580710883834
-158553.580710883893
-158553.58071088366
-158553.58071088366
-158553.580710883456
-158553.58071088334
-158553.580710883427
-158553.580710883194
-158553.580710883194
-158553.58071088366
-158553.580710883951
-158553.580710883834
-158553.580710883747
-158553.58071088366
-158553.580710883747
-158553.580710883194
-158553.58071088366
-158553.58071088334
-158553.580710883514
-158553.580710883834
-158553.580710883456
-158553.58071088366
-158553.580710883747
-158553.580710883456
-158553.58071088334
-158553.580710883456
-158553.580710884271
-158553.580710884329
-158553.580710883747
-158553.580710883572
-158553.580710883136
-158553.580710883747
-158553.580710883514
-158553.580710883747
-158553.580710883776
-158553.580710883834
-158553.580710884329
-158553.580710884213
-158553.580710884416
-158553.580710884329
-158553.580710883776
-158553.580710883747
-158553.580710883834
-158553.580710883747
-158553.580710883834
-158553.580710883514
-158553.580710883427
-158553.580710883747
-158553.580710883747
-158553.580710883427
-158553.580710883572
-158553.580710883747
-158553.580710884038
-158553.580710883951
-158553.580710883776
-158553.580710884096
-158553.580710883834
-158553.580710883747
-158553.58071088334
-158553.580710883834
-158553.580710884329
-158553.580710883893
-158553.580710884329
-158553.580710884329
-158553.580710883834
-158553.580710883776
-158553.580710883893
-158553.580710883951
-158553.580710884038
-158553.580710883951
-158553.580710884184
-158553.580710883893
-158553.580710883834
-158553.580710883747
-158553.580710884271
-158553.580710883951
-158553.580710883747
-158553.580710883834
-158553.580710884271
-158553.580710883747
-158553.580710883747
-158553.580710883194
-158553.580710883427
-158553.58071088366
-158553.580710883776
-158553.58071088366
-158553.580710883834
-158553.580710884038
-158553.580710883776
-158553.580710884271
-158553.580710884096
-158553.580710883572
-158553.580710883572
-158553.58071088334
-158553.58071088334
-158553.580710883078
-158553.58071088334
-158553.580710883427
-158553.580710883194
-158553.580710883602
-158553.580710883834
-158553.580710884096
-158553.580710884096
-158553.580710884213
-158553.580710884329
-158553.580710883893
-158553.580710883834
-158553.580710883514
-158553.580710883311
-158553.580710883514
-158553.580710883602
-158553.580710883747
-158553.580710883311
-158553.580710883427
-158553.580710883951
-158553.580710884562
-158553.580710884329
-158553.580710883893
-158553.580710883747
-158553.580710883834
-158553.580710883456
-158553.580710883456
-158553.580710883572
-158553.580710883776
-158553.580710883747
-158553.580710883747
-158553.580710883776
-158553.580710883951
-158553.580710883834
-158553.580710884038
-158553.580710884416
-158553.580710883834
-158553.580710883747
-158553.580710883893
-158553.58071088366
-158553.580710883456
-158553.580710883311
-158553.580710883427
-158553.580710883602
-158553.580710883572
-158553.58071088334
-158553.580710883514
-158553.580710883893
-158553.580710883514
-158553.580710883078
-158553.580710883311
-158553.580710883602
-158553.580710883311
-158553.580710883514
-158553.580710883514
-158553.580710883427
-158553.580710883747
-158553.580710884096
-158553.58071088366
-158553.580710883572
-158553.580710883514
-158553.58071088366
-158553.580710883747
-158553.580710883834
-158553.580710884184
-158553.580710883893
-158553.580710883747
-158553.580710883747
-158553.580710883747
-158553.580710883747
-158553.580710883427
-158553.580710883747
-158553.580710883747
-158553.580710883834
-158553.580710883834
-158553.580710883747
-158553.580710883572
-158553.580710883427
-158553.580710883602
-158553.580710883456
-158553.580710883194
-158553.580710883311
-158553.580710883427
-158553.580710883747
-158553.58071088366
-158553.580710881535
-158553.580710883514
-158553.580710884096
-158553.580710883747
-158553.580710883194
-158553.580710883194
-158553.580710883456
-158553.580710883456
-158553.58071088299
-158553.580710883078
-158553.580710883456
-158553.580710884096
-158553.580710883834
-158553.580710883136
-158553.580710880982
-158553.580710849754
-158553.580710883078
-158553.580710883514
-158553.580710883194
-158553.580710883311
-158553.580710883776
-158553.580710884213
-158553.580710883776
-158553.580710883951
-158553.580710883572
-158553.58071088334
-158553.580710882903
-158553.580710882379
-158553.580710881535
-158553.580710864713
-158553.580710407434
-158553.580710529262
-158553.580709498725
-158553.580705259577
-158553.580687644047
-158553.580615046259
-158553.58032309945
-158553.579191578174
-158553.575004113634
-158553.560308295739
-158553.511653342342
-158553.360435074632
-158552.92236311239
-158551.753329798608
-158548.926264916867
-158542.859545310464
-158530.770458686893
-158507.211273719178
-158462.496573119395
-158379.923946139694
-158231.629118369543
-157972.750630959694
-157534.097102437925
-156814.059793754044
-155713.868188105029
-154109.304204647633
-151867.501460955013
-148884.148456705007
-145071.293619652628
-140358.914094989625
-134723.034754386521
-128173.963826634848
-120744.095483025711
-112497.441220730761
-103539.799831375261
-94028.9849187297514
-84174.5298939595668
-74224.919360102489
-64447.5736169074371
-55073.8554904337143
-46264.184499808398
-38126.1582722563398
-30700.5008421233288
-23950.7754453198722
-17867.7131590566678
-12488.8799924858504
-7777.98356456887541
-3262.10768492334637
2164.81950995135958
7839.65045765559807
12816.222077800021
16724.2856744586934
20660.4105080511617
24751.3431127264266
28798.4007470909091
32665.915573961669
36367.7075074654131
39980.6449899266518
43689.6078168857348
47979.5299545348244
52940.9064684136829
57940.0897731677032
61495.5724421230188
64700.6010114744495
67723.7274309539935
70500.2440029639547
72996.8193566640548
75778.409259272652
79141.67868493282
82937.5150446490734
86226.1923269173858
88669.8727132863569
91539.4153114807123
95024.4574682954117
97198.8899644638295
99510.3989220099029
-158553.580710847804
-158553.580710750743
-158553.580710373732
-158553.580708882189
-158553.580702981882
-158553.580680041225
-158553.580593523686
-158553.580280239432
-158553.579198914755
-158553.575660143513
-158553.564730391226
-158553.533057841996
-158553.44773352507
-158553.237068239105
-158552.778080156568
-158551.865554285527
-158550.095498122973
-158546.75314918239
-158540.606079444144
-158529.590006280865
-158510.355434224795
-158477.655383544741
-158423.577160164248
-158336.622538687952
-158201.741450760048
-157995.166973231535
-157686.459157221019
-157278.013527232892
-156725.04075546618
-155987.765107013198
-155062.838932799321
-153921.909918022546
-152539.668857005803
-150890.792868243036
-148975.806536354386
-146805.836757079349
-144321.576083251188
-141585.502534631552
-138721.003255982127
-135482.514363815775
-131890.522589837958
-128647.893426339229
-125213.684310316341
-120758.058331551219
-116235.184985470478
-112150.204621611847
-108004.992841496831
-104738.184621608161
-101964.396198117378
-98271.8976032922801
-93205.9585309815448
-89126.5853284874465
-85559.4117045206076
-80845.2748355033691
-74892.442272362372
-70048.5450115468702
-67489.0718283387978
-65735.0784939331643
-63479.7327491050237
-60401.7422169990532
-56287.0059412021437
-51385.9144881051398
-44712.2380446382449
-36450.3535480574064
-28305.4250397232536
-23613.7359042260759
-21702.0147915292109
-19460.2763513102364
-16258.7690609867132
-11690.0657604891439
-5376.69986216425696
61.8962267015717345
4112.98605729995779
10671.0178489903956
18571.570831538229
-158553.580710879382
-158553.580710869195
-158553.580710830487
-158553.580710684328
-158553.580710126233
-158553.580708021735
-158553.580700270686
-158553.580672726093
-158553.580579018482
-158553.58027551166
-158553.579343966383
-158553.576648999267
-158553.569358544948
-158553.551160143048
-158553.511136412882
-158553.431584170554
-158553.27750543307
-158552.987174461625
-158552.454204264388
-158551.499857696996
-158549.831904442748
-158546.986109885358
-158542.246671590867
-158534.541591242567
-158522.286434661481
-158503.109763329267
-158473.361764261208
-158432.623418910167
-158376.798414933262
-158294.115628214407
-158190.965483806474
-158048.21657211383
-157877.848565170396
-157656.984207838483
-157349.994281079795
-157035.585581006511
-156672.475791931094
-156158.510551344836
-155604.552369573037
-155075.406752696377
-154349.979153049644
-153514.863444769842
-152768.742584354593
-151800.44161752233
-150623.68889654646
-149560.475559919636
-148605.709523591329
-147682.268679909495
-146746.141116458166
-145487.744846731366
-143756.79874249117
-141886.942289017927
-140581.57128676711
-138970.731552192417
-136745.212654757779
-135308.601176921802
-134114.009573044546
-132607.570813394501
-131369.339880911139
-130311.503384375697
-128862.030806434952
-126873.077002488673
-124904.8370422546
-122299.824398789511
-119305.010235972019
-116877.572607881724
-114475.270794807104
-112189.673425222209
-109998.356582601569
-107837.955107124435
-105711.902635215069
-103115.596764572707
-99418.3172679067211
-95071.4887391512457
-89211.1182318041829
-158553.58071088299
-158553.580710882059
-158553.580710878101
-158553.580710863811
-158553.580710812821
-158553.58071062676
-158553.580709959992
-158553.580707644636
-158553.580699909857
-158553.580675203237
-158553.580600085581
-158553.580383783759
-158553.579798019346
-158553.578325344861
-158553.575070262217
-158553.568603483291
-158553.556097235036
-158553.532579366787
-158553.489487269719
-158553.412402553979
-158553.277597876237
-158553.046909574827
-158552.660270332213
-158552.024874567258
-158550.999258204014
-158549.369781505695
-158546.824320794491
-158543.035893305088
-158537.785854233836
-158529.943086952437
-158519.233041353145
-158503.784900448925
-158485.497104789712
-158459.635209123575
-158422.049273784127
-158380.968511058629
-158333.483225716947
-158265.218004430673
-158177.121079492412
-158098.787395224033
-157992.872191224218
-157845.589556653926
-157707.565811280074
-157558.054379892419
-157356.20123114562
-157115.852290138399
-156916.578005540505
-156674.761068508029
-156381.178975544346
-156121.620261537144
-155801.523605804454
-155357.359788688453
-154976.670270166214
-154587.762874358479
-154043.549787135998
-153574.66393436378
-153271.514194201241
-152933.664768306015
-152645.455208381638
-152300.210018184647
-151829.391566555889
-151270.856290307682
-150755.676788819459
-150068.622297646216
-149274.587047748064
-148659.308703747374
-148112.42902770685
-147589.023154115042
-146891.552811674104
-146170.192059479654
-145470.493897309672
-144616.762824423204
-143529.917796724738
-142061.159441538417
-139933.846516852442
-158553.580710883747
-158553.58071088366
-158553.580710883136
-158553.580710882001
-158553.58071087749
-158553.580710861221
-158553.580710805341
-158553.580710614129
-158553.580709987262
-158553.580708012159
-158553.58070206258
-158553.580685014575
-158553.58063884353
-158553.580522205302
-158553.580262999691
-158553.579747709446
-158553.578750790068
-158553.57687573423
-158553.573438962543
-158553.567286041129
-158553.556507239089
-158553.538006964285
-158553.506865095173
-158553.455407465459
-158553.371887414891
-158553.238721849222
-158553.030420616124
-158552.711305924022
-158552.23791154442
-158551.535151155724
-158550.509478955704
-158549.006728542474
-158547.145462571818
-158544.430062188301
-158540.382168810378
-158535.748892289062
-158530.113429020683
-158522.027472038288
-158510.601710351999
-158500.137057094107
-158485.725831631949
-158465.071094910294
-158445.405573922239
-158421.933947705227
-158393.179146867769
-158354.84593542965
-158319.761080247525
-158282.134662200318
-158230.443670239911
-158173.633230435342
-158114.061545951059
-158032.62533005781
-157943.856989934226
-157867.808940892457
-157765.596697208122
-157654.264840946853
-157572.229856501217
-157484.309473120928
-157382.104202311602
-157286.847328073927
-157179.926456163143
-157035.174826440896
-156892.33273065195
-156764.528893377195
-156595.65888346557
-156421.191371341003
-156318.953501274518
-156209.047597781464
-156068.134567678091
-155932.537821350066
-155753.113768735959
-155538.503671703977
-155251.432798308495
-154875.786578090541
-154267.482118811458
-158553.580710884271
-158553.580710884504
-158553.580710884096
-158553.580710883602
-158553.580710883427
-158553.580710881826
-158553.580710877344
-158553.58071086189
-158553.580710812705
-158553.580710660666
-158553.580710207345
-158553.580708915542
-158553.580705420696
-158553.580696565739
-158553.580676770682
-158553.580637371429
-158553.5805610393
-158553.580417259975
-158553.580153291026
-158553.579679724848
-158553.578847872821
-158553.577415043546
-158553.574992226582
-158553.570966760773
-158553.564390602929
-158553.553824349947
-158553.537131411635
-158553.51122314902
-158553.471695495711
-158553.412218466605
-158553.323897993949
-158553.192977290571
-158553.014557923365
-158552.751616747701
-158552.358538396074
-158551.893109503231
-158551.284070389142
-158550.410230658832
-158549.1485919939
-158547.904517626652
-158546.171815545909
-158543.665395357617
-158541.081265788205
-158538.162073973625
-158534.240592722548
-158528.892047707341
-158523.839988128108
-158517.82520962556
-158509.672750074242
-158501.075386911631
-158491.702487852395
-158479.093006829353
-158464.590080923866
-158450.90155467391
-158433.373045899527
-158411.722983753774
-158393.223668599792
-158376.773320770561
-158355.027767336316
-158331.237894362363
-158308.525960911385
-158278.845936501632
-158245.385222303972
-158217.129586112656
-158186.713937461813
-158144.996919865196
-158114.008533122134
-158091.69416084222
-158068.267982566409
-158037.623719632364
-157995.915657835692
-157940.754201532953
-157865.083965320926
-157753.072008490009
-157564.737470293592
-158553.580710883427
-158553.580710882903
-158553.580710883136
-158553.580710883602
-158553.58071088334
-158553.580710883194
-158553.580710882845
-158553.580710881681
-158553.580710877926
-158553.580710866634
-158553.580710833718
-158553.580710740673
-158553.580710488721
-158553.58070984896
-158553.58070840771
-158553.580705534725
-158553.580699956306
-158553.580689422088
-158553.580670028459
-158553.580635126302
-158553.580573595013
-158553.580467160005
-158553.580286295881
-158553.579984084499
-158553.579487182229
-158553.578682836989
-158553.577400727896
-158553.575388049998
-158553.572275352315
-158553.567528719665
-158553.56038832257
-158553.549781620008
-158553.534216314525
-158553.511325703847
-158553.477264186542
-158553.434508617152
-158553.374447808805
-158553.289164453076
-158553.165257352608
-158553.031998224877
-158552.844407731871
-158552.573083495896
-158552.276989285485
-158551.933832017938
-158551.469162737689
-158550.832042828784
-158550.184294886334
-158549.418688298872
-158548.391045167838
-158547.152137589932
-158545.809618801402
-158544.021412949718
-158541.889272110246
-158539.7751027458
-158537.067972641322
-158533.589111379639
-158530.428126351413
-158527.512730979564
-158523.684761976619
-158519.289636106289
-158514.626710577839
-158509.001011620014
-158502.77095245244
-158496.532369078399
-158489.734323918063
-158482.746680763172
-158476.414396274427
-158469.696447981347
-158460.970406773733
-158449.180602937762
-158432.802887065103
-158409.161297637213
-158373.240384013858
-158314.73704588908
-158210.399741860718
-158553.580710882758
-158553.580710882758
-158553.580710882816
-158553.580710882525
-158553.580710882699
-158553.580710882699
-158553.58071088299
-158553.58071088299
-158553.580710883136
-158553.580710882496
-158553.580710880342
-158553.58071087359
-158553.580710856244
-158553.580710812472
-158553.580710713111
-158553.580710514216
-158553.580710127164
-158553.580709393515
-158553.580708038033
-158553.580705589935
-158553.580701255269
-158553.580693721422
-158553.580680849147
-158553.580659211264
-158553.580623395974
-158553.580564987904
-158553.580471099354
-158553.580322287249
-158553.580089638475
-158553.579730747937
-158553.579184288828
-158553.578362622095
-158553.577142119699
-158553.575345896272
-158553.572731923196
-158553.569017049711
-158553.563769898261
-158553.556324365549
-158553.545576168282
-158553.532777296845
-158553.514746703702
-158553.489024849405
-158553.458964099234
-158553.42295962444
-158553.373732635606
-158553.305679098412
-158553.230663844704
-158553.138890061382
-158553.016166603775
-158552.864206256461
-158552.697914558899
-158552.476333898579
-158552.212385865947
-158551.925563926547
-158551.548185283522
-158551.06969528168
-158550.587135008158
-158550.083985176316
-158549.470851280814
-158548.75644603587
-158547.948882529134
-158547.01624191142
-158545.961273941008
-158544.742308251676
-158543.195862044784
-158541.136274208984
-158538.358786204888
-158534.515317249141
-158529.017168830207
-158520.88379224349
-158508.470956162433
-158488.940326373297
-158457.098714418709
-158402.621090971399
-158303.050988994481
-158553.580710883427
-158553.580710883572
-158553.580710883427
-158553.58071088334
-158553.580710883311
-158553.580710883136
-158553.580710883514
-158553.58071088334
-158553.58071088299
-158553.580710883311
-158553.58071088334
-158553.580710883078
-158553.580710881972
-158553.580710879411
-158553.580710872688
-158553.580710859474
-158553.580710833514
-158553.580710785172
-158553.580710695504
-158553.580710532697
-158553.580710242939
-158553.580709736736
-158553.580708866764
-158553.580707394722
-158553.580704942113
-158553.580700911349
-158553.580694378237
-158553.580683929817
-158553.580667434551
-158553.580641721026
-158553.5806021264
-158553.580541887553
-158553.580451298389
-158553.580316576146
-158553.580118529411
-158553.579831613111
-158553.579420356022
-158553.578836393339
-158553.578016359737
-158553.576885933639
-158553.575331684347
-158553.573190923664
-158553.570465853554
-158553.566932459711
-158553.562207902694
-158553.555812488339
-158553.547973290406
-158553.538364090666
-158553.525566077937
-158553.508950683929
-158553.489184766542
-158553.463533522008
-158553.431638476817
-158553.392985859566
-158553.343706704065
-158553.283493573428
-158553.212548809097
-158553.122742826235
-158553.003172484692
-158552.84283864405
-158552.625181425479
-158552.324082195933
-158551.897910095315
-158551.279443219042
-158550.359400166082
-158548.960486576834
-158546.796034795843
-158543.401029700501
-158538.01967285428
-158529.419832839048
-158515.585282915621
-158493.188745749678
-158456.547932140296
-158394.994203476905
-158285.039213432814
-158553.580710884416
-158553.580710884416
-158553.580710884416
-158553.580710884271
-158553.580710883834
-158553.580710883834
-158553.580710884271
-158553.580710883951
-158553.580710884213
-158553.580710884329
-158553.580710883834
-158553.58071088334
-158553.580710883194
-158553.580710882583
-158553.580710882525
-158553.580710882146
-158553.580710880895
-158553.580710878101
-158553.580710871902
-158553.580710861366
-158553.580710842332
-158553.58071080895
-158553.580710751732
-158553.580710653478
-158553.580710488721
-158553.580710215378
-158553.580709768576
-158553.580709046742
-158553.5807078949
-158553.580706078792
-158553.580703247455
-158553.580698883074
-158553.580692228017
-158553.580682186323
-158553.580667191942
-158553.580645040056
-158553.580612641061
-158553.580565716024
-158553.580498450203
-158553.580403254979
-158553.58026964523
-158553.58008362574
-158553.579827856214
-158553.579478272819
-158553.578998993587
-158553.578341849119
-158553.577445888019
-158553.576227080572
-158553.574564165145
-158553.572287383751
-158553.569156315352
-158553.564810864802
-158553.558716208179
-158553.550063707866
-158553.537588365871
-158553.519327147864
-158553.492220075714
-158553.451449433342
-158553.389341418835
-158553.293534215365
-158553.144150214095
-158552.909219778085
-158552.537351692939
-158551.945993268018
-158551.003391098115
-158549.493979236577
-158547.061650104006
-158543.115281402075
-158536.671330128505
-158526.075827289169
-158508.504347551323
-158479.23682589407
-158430.972465788189
-158359.422677678318
-158304.717260213307
-158553.580710883893
-158553.580710884038
-158553.580710883893
-158553.580710883602
-158553.580710883747
-158553.580710883311
-158553.580710882961
-158553.580710882816
-158553.580710882699
-158553.580710882641
-158553.580710882758
-158553.580710882816
-158553.580710882816
-158553.58071088299
-158553.580710882903
-158553.580710882816
-158553.580710882292
-158553.580710881215
-158553.58071087912
-158553.58071087522
-158553.580710868497
-158553.580710856186
-158553.580710835027
-158553.580710798909
-158553.580710737268
-158553.580710634415
-158553.580710465554
-158553.580710190727
-158553.58070974829
-158553.580709044414
-158553.580707934656
-158553.580706203211
-158553.58070352787
-158553.580699431448
-158553.580693212367
-158553.580683849665
-158553.580669864285
-158553.580649129231
-158553.580618607491
-158553.580574013991
-158553.580509265797
-158553.580415787263
-158553.580281466682
-158553.580089015159
-158553.579813443706
-158553.579419268004
-158553.578854417516
-158553.578041383385
-158553.576864667411
-158553.575159447442
-158553.572669785877
-158553.568978286552
-158553.563391861331
-158553.554769568524
-158553.540975817625
-158553.517619745166
-158553.474944264541
-158553.417758142721
-158553.348663178069
-158553.227201988862
-158553.017667535547
-158552.655712384498
-158552.024813945551
-158550.879934386059
-158549.590757238126
-158547.754565354757
-158545.060406805511
-158540.153718685615
-158531.470055360958
-158516.208473412145
-158489.165735600138
-158461.3572238161
-158433.654098093219
-158403.300931672129
-158363.185197613551
-158553.580710884213
-158553.580710884213
-158553.580710884475
-158553.580710884038
-158553.580710883776
-158553.580710883572
-158553.580710883572
-158553.580710883136
-158553.580710883194
-158553.580710883194
-158553.580710883194
-158553.580710882525
-158553.580710882146
-158553.580710881826
-158553.580710880167
-158553.580710876297
-158553.580710868147
-158553.580710853275
-158553.580710825394
-158553.580710774288
-158553.580710682407
-158553.580710520589
-158553.580710240902
-158553.580709765083
-158553.580708967929
-158553.580707650573
-158553.580705503322
-158553.580702047184
-158553.580696551566
-158553.580687916663
-158553.580674501485
-158553.580653879471
-158553.580622496665
-158553.580575202184
-158553.58050463628
-158553.580400384555
-158553.58024777571
-158553.580026251846
-158553.57970735323
-158553.579252547788
-158553.578610227298
-158553.577710894257
-158553.57646020726
-158553.574733225774
-158553.572393586655
-158553.569271337328
-158553.565108744515
-158553.5595152108
-158553.551924767438
-158553.541663587501
-158553.527510383981
-158553.506665489957
-158553.471858124423
-158553.438470288675
-158553.404694313766
-158553.364088040369
-158553.300974920887
-158553.202579832927
-158553.049765596748
-158552.80784934148
-158552.415335098573
-158551.761917331663
-158550.636880960112
-158548.588400615117
-158546.303048905946
-158543.221694908512
-158538.653828698967
-158532.94083948381
-158524.484319677285
-158516.562786660361
-158506.852182043804
-158491.751492842013
-158471.943794257182
-158448.62132126189
-158408.053869270283
-158553.580710884184
-158553.580710884038
-158553.580710884416
-158553.580710884416
-158553.580710884096
-158553.580710883747
-158553.580710883572
-158553.580710883456
-158553.580710883078
-158553.58071088299
-158553.580710882292
-158553.580710880575
-158553.580710875103
-158553.58071086189
-158553.580710830516
-158553.580710765353
-158553.580710636976
-158553.580710390932
-158553.580709931644
-158553.580709094618
-158553.580707599758
-158553.58070498571
-158553.580700496037
-158553.58069291609
-158553.58068031969
-158553.580659686209
-158553.580626342038
-158553.580573156156
-158553.580489429878
-158553.58035932295
-158553.580159554753
-158553.579856072349
-158553.579399393639
-158553.578718571312
-158553.577714030049
-158553.576247045596
-158553.574122500344
-158553.571064194723
-158553.566693014553
-158553.560569224675
-158553.552141678665
-158553.540658145881
-158553.525027168391
-158553.503724241164
-158553.475160353439
-158553.439857745514
-158553.392185090604
-158553.323890591768
-158553.212775072752
-158553.116532782209
-158553.024104441662
-158552.920823944383
-158552.785930312646
-158552.611607873841
-158552.38853057081
-158552.115078831877
-158551.760746550251
-158551.303275495215
-158550.71061440272
-158549.907349181682
-158548.770890237356
-158547.043707516597
-158544.115309270099
-158541.698949134938
-158539.316993480781
-158536.866873370775
-158533.859748996707
-158529.837248000578
-158524.908405710099
-158518.763649482426
-158510.053222300281
-158499.268471688352
-158484.24100401561
-158461.708703922079
-158423.432921047963
-158553.580710883572
-158553.580710883747
-158553.580710883427
-158553.580710883194
-158553.580710883572
-158553.580710883572
-158553.580710883311
-158553.580710882845
-158553.580710881797
-158553.580710878334
-158553.580710866954
-158553.5807108359
-158553.580710752285
-158553.580710538808
-158553.580710028677
-158553.580708973954
-158553.580706901237
-158553.580702937965
-158553.580695561453
-158553.580682170374
-158553.580658409803
-158553.580617125495
-158553.580546781857
-158553.580429094844
-158553.580235427624
-158553.579921294906
-158553.579418339941
-158553.578623377311
-158553.577384482254
-158553.575481032138
-158553.572591764561
-158553.568244491413
-158553.561744737788
-158553.5521032291
-158553.538095466647
-158553.518124947732
-158553.489848791069
-158553.449786244688
-158553.39314760486
-158553.315014143911
-158553.208899996709
-158553.063376698847
-158552.852514254977
-158552.506373822573
-158552.182603238034
-158551.87017570663
-158551.494636061689
-158551.020210165967
-158550.482412055717
-158549.770402122755
-158548.821734663739
-158547.625779822207
-158546.308090494334
-158544.698778510268
-158542.743871573941
-158540.272374602559
-158536.885749495937
-158531.657583403139
-158528.776380354189
-158526.017160605086
-158521.896488518483
-158515.624659726658
-158511.102757594024
-158507.056110103906
-158502.650306573254
-158497.882109012309
-158492.035802022059
-158485.102657071926
-158477.803533186088
-158468.421325130883
-158456.531627485499
-158443.706998568814
-158426.432535857661
-158401.336354830535
-158359.552530870045
-158553.580710883514
-158553.580710882816
-158553.580710883078
-158553.580710883136
-158553.580710883078
-158553.580710882525
-158553.580710880982
-158553.58071087391
-158553.580710854265
-158553.580710794631
-158553.580710619688
-158553.580710128706
-158553.580708811904
-158553.580705452565
-158553.580697421217
-158553.580680761283
-158553.580648047617
-158553.580585629359
-158553.580469915032
-158553.580261009309
-158553.57989282909
-158553.579258060578
-158553.578185913182
-158553.576409895875
-158553.573516336823
-158553.568860018073
-158553.56144059822
-158553.549761389469
-158553.531820813427
-158553.50490829497
-158553.465052901738
-158553.406192882685
-158553.319142077322
-158553.190658021544
-158553.005884766637
-158552.744957019197
-158552.370915937732
-158551.80447781019
-158550.851554140565
-158549.834993955883
-158548.727735288849
-158547.451971478557
-158545.824260658119
-158543.664185142406
-158541.183188454248
-158537.939645741513
-158533.650766373699
-158528.83143954986
-158523.859180111467
-158517.68030474172
-158509.285053379543
-158500.216558686894
-158488.774204438552
-158473.070210463688