/*--------------------------------*- C++ -*----------------------------------*\
  =========                 |
  \\      /  F ield         | OpenFOAM: The Open Source CFD Toolbox
   \\    /   O peration     | Website:  https://openfoam.org
    \\  /    A nd           | Version:  8
     \\/     M anipulation  |
\*---------------------------------------------------------------------------*/
FoamFile
{
    version     2.0;
    format      ascii;
    class       volScalarField;
    location    "0.3";
    object      gas::cTot;
}
// * * * * * * * * * * * * * * * * * * * * * * * * * * * * * * * * * * * * * //

dimensions      [0 -3 0 0 1 0 0];

internalField   nonuniform List<scalar> 
1800
(
0.0291546092684330099
0.02915459955392153
0.0291545945491533225
0.029154593793212738
0.0291545930444912435
0.0291545912469814011
0.029154589222750469
0.0291545875546303825
0.029154586164400087
0.0291545847884791369
0.0291545833415812611
0.0291545818852338955
0.0291545804765651513
0.0291545791121507226
0.029154577765479861
0.029154600794122229
0.0291545975509437463
0.0291545944185612263
0.0291545931649422468
0.0291545922880982709
0.0291545907932204869
0.029154588996346105
0.0291545874020193337
0.0291545860416254458
0.0291545847064007893
0.0291545833031158289
0.0291545818812627353
0.0291545805007246417
0.0291545791663395046
0.0291545778562793054
0.0291546004895417536
0.0291545980355337117
0.0291545949483848696
0.0291545931790764441
0.0291545921848088176
0.0291545908776892591
0.0291545891984144219
0.0291545875894199842
0.029154586193271527
0.0291545848582683217
0.0291545834732999491
0.0291545820643442644
0.029154580689197275
0.0291545793609073282
0.029154578067948262
0.0291545969534704255
0.0291545956410766763
0.0291545937671689251
0.0291545924275115401
0.0291545914974287099
0.0291545903414273389
0.0291545888585929072
0.0291545873651746328
0.0291545860203985749
0.0291545847336098299
0.0291545834047298308
0.0291545820438402631
0.0291545807041808484
0.0291545794070891644
0.0291545781477630626
0.0291545966156399709
0.0291545957935114876
0.0291545941879629393
0.0291545926625396447
0.0291545915019867236
0.0291545903381665757
0.0291545889565290178
0.0291545875072289386
0.0291545861445448688
0.0291545848432711655
0.0291545835247174444
0.0291545821804357688
0.0291545808501797628
0.0291545795581191237
0.0291545783043109137
0.0291545949332965744
0.0291545942520928004
0.0291545930455090092
0.029154591877371995
0.0291545909052076356
0.0291545898818238204
0.0291545886472646745
0.0291545873040449412
0.0291545859944717205
0.0291545847305859432
0.0291545834559840816
0.0291545821537908742
0.0291545808532137143
0.0291545795804785575
0.0291545783399357397
0.0291545947063679596
0.0291545943108751753
0.0291545933565839181
0.029154592178524584
0.0291545910601735438
0.0291545899541253394
0.0291545887312352515
0.0291545874124241877
0.0291545860970692933
0.029154584816751275
0.0291545835389245521
0.0291545822434800088
0.0291545809472387937
0.0291545796740803644
0.0291545784314836409
0.0291545939023389739
0.0291545934610682109
0.0291545925692330357
0.0291545915433793941
0.0291545905743863798
0.0291545895875401882
0.029154588472292544
0.0291545872372641728
0.0291545859718876504
0.0291545847216005058
0.0291545834740705202
0.0291545822099878241
0.0291545809367885177
0.0291545796774763527
0.0291545784420111052
0.029154593865009383
0.0291545935834361496
0.0291545928640003053
0.0291545918729800256
0.0291545908196624987
0.0291545897497660564
0.0291545885934968267
0.0291545873448325402
0.0291545860624362919
0.02915458479503397
0.0291545835348204219
0.029154582262989906
0.029154580986166214
0.0291545797222499611
0.0291545784844893102
0.0291545935685620823
0.0291545932190970455
0.0291545924393287054
0.0291545914639834217
0.0291545904862146564
0.0291545895027295159
0.0291545884163294973
0.0291545872186336728
0.0291545859693497639
0.0291545847252231809
0.0291545834860844483
0.0291545822334845252
0.0291545809700244074
0.0291545797136293326
0.0291545784792242302
0.0291545935756807734
0.0291545932224245956
0.0291545924431626871
0.0291545914664784536
0.0291545904926255317
0.0291545895073430442
0.0291545884220766952
0.0291545872192786187
0.0291545859730616835
0.0291545847315505882
0.0291545834919445905
0.0291545822369701398
0.0291545809718018918
0.0291545797178844462
0.0291545784861756765
0.0291545938682359201
0.0291545935862359724
0.029154592867581576
0.0291545918745127995
0.029154590824106881
0.0291545897514979141
0.0291545885977469721
0.0291545873475110053
0.0291545860658183296
0.0291545847967597006
0.0291545835363653007
0.0291545822661010354
0.0291545809887934111
0.0291545797255206712
0.0291545784864911776
0.0291545939027089973
0.029154593460703062
0.0291545925688085454
0.0291545915450707183
0.0291545905742832227
0.0291545895894611065
0.0291545884705867973
0.0291545872343535357
0.0291545859700281865
0.0291545847239585501
0.0291545834763544641
0.0291545822083435595
0.0291545809343625971
0.0291545796760189074
0.0291545784438494958
0.0291545947065235227
0.0291545943107949478
0.0291545933565407998
0.0291545921791796885
0.0291545910604040885
0.0291545899546383422
0.029154588730308937
0.0291545874108699761
0.0291545860961560585
0.0291545848175195355
0.029154583539680607
0.0291545822426791078
0.0291545809459241405
0.0291545796733061885
0.0291545784319989787
0.0291545949333677466
0.0291545942521024455
0.0291545930455610718
0.0291545918776518337
0.0291545909053609852
0.0291545898818942606
0.0291545886466995779
0.0291545873031701756
0.0291545859939244568
0.0291545847307300744
0.0291545834561304541
0.0291545821533060155
0.0291545808524628081
0.0291545795799945662
0.0291545783399846693
0.0291545966156852576
0.0291545957935399752
0.0291545941880106373
0.0291545926626522976
0.0291545915020357191
0.0291545903380909868
0.0291545889561437808
0.0291545875066866016
0.0291545861441524813
0.0291545848431664055
0.0291545835246166674
0.0291545821800759074
0.0291545808496967533
0.0291545795577663608
0.0291545783041948746
0.0291545969534948435
0.0291545956410970176
0.0291545937671931765
0.0291545924275419706
0.0291545914974066442
0.029154590341302928
0.0291545888583021329
0.0291545873647946624
0.0291545860200785392
0.0291545847334093756
0.0291545834045318017
0.0291545820435352258
0.0291545807038247826
0.0291545794068019774
0.0291545781475942845
0.0291546004895542055
0.0291545980355415665
0.0291545949483855635
0.0291545931790615463
0.0291545921847469781
0.0291545908775489304
0.0291545891981741766
0.0291545875891218026
0.0291545861929900056
0.0291545848580338461
0.0291545834730666219
0.0291545820640680235
0.0291545806889044051
0.0291545793606568827
0.0291545780677673963
0.0291546007941246819
0.0291545975509405197
0.0291545944185456554
0.0291545931649029137
0.0291545922880149314
0.029154590793074673
0.0291545889961312595
0.029154587401760565
0.0291545860413639328
0.029154584706155711
0.029154583302870813
0.0291545818810013957
0.0291545805004624556
0.029154579166109109
0.029154577856098679
0.0291546092684297001
0.0291545995539118259
0.0291545945491294978
0.029154593793163569
0.0291545930443999485
0.0291545912468346262
0.0291545892225466494
0.0291545875543882393
0.029154586164147827
0.0291545847882317445
0.0291545833413333136
0.029154581884979356
0.0291545804763160346
0.0291545791119298299
0.0291545777653021386
0.0291545767117989754
0.0291545758879206314
0.0291545749482645597
0.0291545739002411937
0.0291545728815237222
0.0291545719441469557
0.0291545710525157598
0.0291545701714600279
0.0291545693003567308
0.0291545684527627948
0.029154567634112883
0.0291545668405708003
0.0291545660677922196
0.0291545653149153892
0.0291545645826728726
0.0291545638710029517
0.0291545631788287032
0.0291545625049412088
0.0291545618484612863
0.0291545612086787087
0.0291545605848042566
0.0291545599759377022
0.0291545593809497995
0.0291545587992313726
0.0291545582296934419
0.0291545576713967206
0.0291545571235058976
0.0291545565850530389
0.0291545560551700542
0.0291545555332099644
0.0291545550185018411
0.0291545545103604406
0.0291545540082173878
0.0291545535116375203
0.0291545530202817205
0.0291545525337855577
0.0291545520518619143
0.0291545515745963574
0.0291545511014106098
0.0291545506316466911
0.0291545501640362616
0.0291545496947003754
0.0291545492157115199
0.0291545487169611456
0.0291545482023311819
0.0291545477795654741
0.0291545476393614937
0.0291545476445969481
0.0291545475633058632
0.0291545471624618836
0.0291545464256188457
0.0291545457666666855
0.0291545452535934314
0.0291545447885135402
0.0291545443375155582
0.0291545438001554677
0.0291545433065528159
0.0291545432915426145
0.02915454345112704
0.0291545436438325929
0.0291545436176958925
0.0291545430790136027
0.029154542285256619
0.0291545416833062961
0.0291545411520835185
0.0291545405518407706
0.0291545401507795482
0.0291545402163888405
0.0291545403157072343
0.0291545402718959186
0.0291545403010918282
0.0291545402780679468
0.0291545398333918591
0.0291545390613731185
0.0291545384265247294
0.0291545767924872821
0.0291545759408345269
0.0291545750101011754
0.0291545739842514716
0.0291545729773412914
0.0291545720421215807
0.0291545711522042117
0.0291545702743993239
0.029154569405454283
0.0291545685576447833
0.0291545677373761906
0.0291545669419227757
0.0291545661670208275
0.0291545654114874764
0.0291545646760437357
0.0291545639608848869
0.0291545632651284345
0.0291545625875993426
0.0291545619274111781
0.02915456128389287
0.0291545606563213752
0.0291545600438317606
0.0291545594454697271
0.0291545588603827135
0.0291545582876575581
0.0291545577264052704
0.0291545571757219624
0.0291545566346987951
0.0291545561024887344
0.0291545555785143601
0.0291545550620983425
0.0291545545526214825
0.029154554049617868
0.0291545535527823717
0.0291545530620599923
0.0291545525773908853
0.0291545520987397423
0.029154551628136148
0.0291545511660584074
0.0291545507145208223
0.0291545502775140512
0.02915454985603207
0.0291545494445495726
0.0291545490283110394
0.0291545486026825104
0.0291545482242260498
0.0291545476330804243
0.0291545470975072656
0.0291545468406260479
0.0291545465979341084
0.0291545464010115607
0.0291545460295173989
0.0291545454703570212
0.0291545450498403302
0.0291545447502526388
0.0291545445294452282
0.0291545444016994594
0.029154543767682152
0.0291545433342073369
0.0291545431028471837
0.0291545427367416558
0.0291545425407631099
0.029154542452721581
0.0291545419913890221
0.0291545415088972706
0.0291545411457198068
0.0291545409613762803
0.0291545405267236296
0.029154540258446375
0.0291545401525648493
0.0291545399483077242
0.0291545395523646438
0.0291545393039329831
0.0291545392590901765
0.0291545386953696514
0.0291545769564563149
0.0291545760383973181
0.0291545751153224307
0.0291545741214165009
0.0291545731245127539
0.0291545721811410086
0.0291545712834341691
0.029154570403114987
0.0291545695322597727
0.0291545686802188765
0.0291545678544614557
0.0291545670538275251
0.0291545662741856081
0.0291545655138254929
0.0291545647732973714
0.029154564052996379
0.0291545633522010753
0.0291545626697189871
0.0291545620045949548
0.0291545613561525578
0.029154560723703888
0.0291545601064072402
0.0291545595033349432
0.0291545589135948635
0.0291545583363150319
0.0291545577706279722
0.0291545572156654068
0.0291545566705806274
0.0291545561345507125
0.0291545556068781089
0.0291545550869496475
0.0291545545740428715
0.029154554067604619
0.0291545535671344259
0.0291545530721147202
0.0291545525819814494
0.029154552095653409
0.0291545516126121632
0.0291545511309236963
0.0291545506476518779
0.0291545501587631185
0.0291545496542907102
0.0291545491184266869
0.0291545485254665719
0.0291545478526135139
0.0291545471595772501
0.0291545470690502094
0.0291545474259118018
0.0291545476348176145
0.0291545474907400626
0.029154546694858674
0.0291545457460471551
0.0291545451369327191
0.029154544667721792
0.0291545441417011969
0.0291545436996327664
0.0291545432991043262
0.029154543252499332
0.0291545433296126442
0.0291545432723587933
0.0291545434345667695
0.0291545432819843645
0.0291545423364200605
0.029154541482634376
0.0291545409889785306
0.0291545406965828431
0.0291545402328032555
0.0291545400855795292
0.0291545402210557428
0.0291545401885748533
0.0291545399212147227
0.0291545400124297097
0.0291545400673237087
0.0291545392160082843
0.0291545383720755967
0.0291545770067400192
0.029154576060724316
0.0291545751709546379
0.0291545742236488416
0.0291545732455983364
0.0291545723012874708
0.0291545714041788057
0.0291545705311287116
0.0291545696677935791
0.0291545688192916749
0.0291545679942025841
0.0291545671935989764
0.0291545664138053301
0.0291545656524657033
0.0291545649098247407
0.0291545641865582524
0.0291545634822989799
0.0291545627959820669
0.0291545621266571936
0.0291545614736935313
0.0291545608365103293
0.0291545602143725331
0.0291545596064283624
0.0291545590118272128
0.0291545584297517243
0.0291545578593959895
0.0291545572999555441
0.0291545567506364817
0.0291545562106813975
0.0291545556794338932
0.029154555156314009
0.0291545546407216381
0.0291545541322447664
0.0291545536305721428
0.0291545531354343163
0.0291545526468554618
0.0291545521650361898
0.0291545516911033489
0.0291545512263842524
0.0291545507730922547
0.0291545503344963763
0.0291545499121843958
0.029154549508336302
0.0291545491244987916
0.029154548760892466
0.0291545483897642441
0.0291545478901602227
0.0291545473327146504
0.0291545467535421592
0.0291545463360163952
0.0291545461282523601
0.0291545458171364943
0.0291545454843927833
0.0291545451228840298
0.0291545446790280813
0.0291545440941243898
0.0291545435738910126
0.0291545434857643226
0.0291545435030097257
0.0291545434173070932
0.029154543054120418
0.0291545424955896929
0.0291545421613540225
0.0291545418706352436
0.0291545414742913241
0.0291545409427448263
0.0291545405092936312
0.0291545403296187694
0.0291545402311983448
0.0291545400726883897
0.029154539941261437
0.0291545397606206812
0.0291545393367405696
0.0291545389838536589
0.0291545386305551678
0.0291545771457208079
0.0291545761744452028
0.0291545752886519585
0.0291545743565156494
0.0291545733802830026
0.0291545724271716766
0.0291545715241952885
0.0291545706512929513
0.0291545697884825969
0.0291545689372068421
0.0291545681073004971
0.029154567302111252
0.0291545665184182803
0.0291545657531399049
0.029154565006116847
0.0291545642782454553
0.0291545635694752739
0.029154562878796305
0.0291545622051550476
0.0291545615478658801
0.0291545609063804875
0.0291545602800083042
0.0291545596679083988
0.029154559069222194
0.0291545584831414094
0.0291545579088886286
0.029154557345690009
0.0291545567927796248
0.0291545562494293121
0.0291545557149727116
0.0291545551887999674
0.0291545546703175992
0.0291545541590236441
0.0291545536544390756
0.029154553156091112
0.0291545526635053065
0.0291545521760333479
0.0291545516927764828
0.029154551211866709
0.0291545507298865691
0.0291545502410876477
0.029154549736848015
0.0291545492078055107
0.0291545486498217439
0.0291545480843686776
0.0291545475987727495
0.029154547361140367
0.029154547320849291
0.0291545473082433296
0.0291545471087086318
0.0291545465606970755
0.0291545459091093265
0.0291545453250903128
0.0291545447883496747
0.0291545443151013974
0.0291545439389325825
0.0291545436721011991
0.0291545435137634604
0.0291545433804454961
0.029154543213131736
0.0291545430024767564
0.0291545427280932128
0.0291545422364568214
0.0291545416654512383
0.0291545411275254997
0.0291545407182324731
0.0291545405363990706
0.029154540473637653
0.0291545403274458131
0.0291545401356250317
0.02915454003347508
0.0291545398798474277
0.0291545395779803235
0.0291545391330287652
0.0291545386543730113
0.0291545771741339339
0.0291545761991901936
0.0291545753248894715
0.0291545744121640242
0.0291545734499307138
0.029154572502808819
0.0291545716039969954
0.0291545707369539366
0.0291545698798401295
0.0291545690318206902
0.0291545682032532533
0.0291545673990050748
0.0291545666162501584
0.0291545658513824961
0.0291545651039118413
0.029154564374935979
0.0291545636646802046
0.0291545629721981885
0.0291545622963816781
0.0291545616365476018
0.0291545609922361781
0.0291545603628560225
0.0291545597476301592
0.0291545591457432612
0.0291545585564365606
0.0291545579789907333
0.029154557412686119
0.0291545568568031162
0.0291545563106527864
0.0291545557736000438
0.0291545552450707887
0.0291545547245449337
0.0291545542115743961
0.0291545537057921918
0.0291545532069286788
0.0291545527148477299
0.029154552229622193
0.029154551751710122
0.029154551282171131
0.0291545508231031043
0.0291545503779032864
0.0291545499511196501
0.0291545495475633888
0.0291545491691499251
0.0291545488072710197
0.0291545484292212338
0.0291545479818226851
0.0291545474797746812
0.0291545469756623703
0.0291545464540115505
0.0291545460620041517
0.0291545457431236048
0.0291545454033305083
0.0291545450948245861
0.0291545447609867364
0.0291545443638477758
0.0291545439803881576
0.0291545437027728241
0.0291545434862968827
0.0291545432290513488
0.0291545428995695702
0.0291545424895549403
0.0291545421061549584
0.0291545417708980251
0.0291545414803749924
0.0291545411525909355
0.0291545407939355627
0.0291545405540462946
0.0291545403900927216
0.0291545401927150415
0.0291545399483654592
0.0291545396510938595
0.0291545393139924017
0.0291545389688911277
0.0291545386367699395
0.0291545772641658291
0.0291545762833488632
0.0291545754075823171
0.0291545744988760125
0.0291545735393069945
0.0291545725895954594
0.0291545716863803872
0.0291545708167133648
0.0291545699585123996
0.0291545691087189904
0.0291545682772997999
0.0291545674699871561
0.0291545666844251518
0.0291545659167886315
0.0291545651663067257
0.029154564434122756
0.0291545637206565254
0.0291545630250538597
0.0291545623461767142
0.0291545616833186055
0.02915456103604952
0.0291545604038135793
0.0291545597858418985
0.0291545591813106124
0.0291545585894572475
0.0291545580095693008
0.0291545574409372357
0.0291545568828492294
0.0291545563346206314
0.0291545557956183927
0.0291545552652658843
0.0291545547430355802
0.0291545542284490748
0.0291545537210783946
0.029154553220535135
0.0291545527264413483
0.0291545522383710697
0.0291545517557113137
0.0291545512773325362
0.0291545508008830868
0.02915455032165154
0.0291545498323486259
0.0291545493260881618
0.0291545488040126088
0.0291545482890478644
0.0291545478386654525
0.0291545475147342269
0.0291545472895086318
0.0291545470481205937
0.0291545467989112392
0.0291545464343954466
0.0291545459567449892
0.0291545454729920071
0.0291545449999273364
0.029154544533622137
0.0291545441437345322
0.029154543847817023
0.0291545436075349752
0.0291545433776453609
0.0291545431318567631
0.0291545428547751624
0.0291545425549710607
0.0291545422019372155
0.0291545418025042011
0.0291545413851602778
0.0291545410132895422
0.029154540751743438
0.029154540561038899
0.0291545403640942266
0.0291545401514025325
0.0291545399283939348
0.0291545396857396076
0.02915453938978875
0.0291545390439883721
0.029154538686415276
0.0291545772747343196
0.0291545762967947743
0.0291545754261100416
0.0291545745243437585
0.0291545735723218458
0.0291545726268113217
0.0291545717260392433
0.0291545708591734835
0.029154570005429755
0.0291545691588592296
0.0291545683291006587
0.0291545675227329881
0.02915456673799088
0.0291545659710201709
0.0291545652207823754
0.0291545644884090502
0.0291545637744782746
0.029154563078245415
0.0291545623985741201
0.0291545617347279094
0.0291545610862833128
0.0291545604527197952
0.0291545598333020316
0.0291545592272321914
0.0291545586337761467
0.0291545580522565226
0.0291545574819999341
0.0291545569223254017
0.0291545563725733071
0.0291545558321335448
0.0291545553004530673
0.0291545547770330794
0.0291545542614320662
0.0291545537532759101
0.0291545532522684107
0.0291545527582065117
0.0291545522710344798
0.0291545517910175266
0.0291545513192266667
0.0291545508582981318
0.0291545504121943078
0.0291545499854666684
0.0291545495812426947
0.0291545491943089562
0.0291545488061203777
0.0291545484074016356
0.0291545479821541456
0.0291545475262820208
0.0291545470695978304
0.029154546600299161
0.0291545461428575244
0.0291545457603255877
0.0291545454199398611
0.0291545450766325029
0.0291545447583612359
0.0291545444349757578
0.0291545441002704769
0.0291545437853523853
0.0291545434897587906
0.0291545431829861416
0.0291545428504137311
0.0291545424953792744
0.0291545421331503851
0.0291545417990401803
0.0291545414953222684
0.0291545412162416001
0.0291545409334035936
0.0291545406688576147
0.0291545404273958614
0.0291545401759649853
0.0291545399016366787
0.0291545395980651392
0.0291545392702098477
0.0291545389498707418
0.0291545386459943281
0.0291545773163204569
0.0291545763347804653
0.0291545754623146747
0.0291545745619145452
0.0291545736091266515
0.029154572662839124
0.0291545717599437752
0.0291545708924897777
0.0291545700365201076
0.0291545691884153198
0.0291545683564793309
0.0291545675479883068
0.0291545667615162353
0.0291545659930243159
0.0291545652412628885
0.0291545645072857698
0.0291545637917951378
0.0291545630940909482
0.029154562413006322
0.0291545617477696369
0.0291545610979708353
0.0291545604631205171
0.0291545598425060823
0.0291545592353319762
0.0291545586408581171
0.0291545580584033209
0.0291545574872911772
0.0291545569268341284
0.0291545563763632408
0.0291545558352597593
0.0291545553029631845
0.0291545547789665675
0.0291545542628155012
0.0291545537541118699
0.029154553252509461
0.0291545527576851371
0.0291545522692663837
0.0291545517866884686
0.0291545513093326714
0.029154550837816956
0.0291545503687216344
0.0291545498959498196
0.0291545494144420589
0.029154548917602649
0.0291545483912907799
0.0291545479323957329
0.0291545475792438294
0.029154547286484863
0.0291545469934258276
0.0291545466755332994
0.0291545463321300213
0.0291545459481385646
0.0291545455338828412
0.0291545451156866656
0.0291545446800257693
0.0291545442723817778
0.0291545439391450306
0.0291545436561625355
0.0291545433823243161
0.0291545431009978852
0.0291545428067503734
0.0291545424961856328
0.0291545421758370588
0.029154541839994455
0.0291545414975875293
0.0291545411581931313
0.0291545408662058289
0.0291545406246170868
0.029154540391696477
0.0291545401482813486
0.029154539897900681
0.029154539635355501
0.0291545393140106648
0.0291545389919628042
0.0291545386705971653
0.0291545773124718861
0.0291545763356833264
0.0291545754648730622
0.029154574564412384
0.0291545736147336698
0.0291545726712592775
0.0291545717675856415
0.0291545709001526723
0.0291545700465075247
0.0291545692005031228
0.0291545683689045758
0.029154567561219917
0.0291545667755766479
0.029154566007784901
0.0291545652565895902
0.0291545645229990373
0.0291545638078116454
0.0291545631103321476
0.0291545624294083233
0.0291545617642379219
0.0291545611144313939
0.029154560479546579
0.02915455985886687
0.029154559251574657
0.0291545586569234988
0.0291545580742408328
0.0291545575028612711
0.0291545569421055861
0.029154556391312262
0.0291545558498712137
0.0291545553172328879
0.0291545547929056917
0.0291545542764605099
0.0291545537675502973
0.0291545532659486031
0.0291545527716383299
0.0291545522850302566
0.0291545518069450185
0.0291545513373998449
0.0291545508754133889
0.02915455042635752
0.0291545500039483603
0.0291545496211792037
0.0291545492861554484
0.0291545490129244723
0.0291545486854014047
0.0291545482631890909
0.0291545477937653029
0.0291545473125143298
0.0291545468236357776
0.0291545463480931064
0.0291545458813789633
0.0291545454391636503
0.0291545450329567767
0.0291545446883460235
0.0291545443910991749
0.0291545440908027795
0.029154543780515952
0.0291545434731467282
0.0291545431624965143
0.0291545428382571012
0.0291545425033540237
0.0291545421649038738
0.029154541837136061
0.0291545415308129274
0.0291545412555444319
0.0291545409866703353
0.0291545407124659955
0.0291545404349055765
0.0291545401488710471
0.0291545398346874443
0.0291545395091606097
0.0291545392181070673
0.0291545389158742868
0.0291545386213189484
0.0291545773187318925
0.0291545763361626027
0.02915457546733808
0.0291545745719267446
0.0291545736211111552
0.029154572673759635
0.0291545717744106578
0.0291545709083765349
0.0291545700533688001
0.0291545692051834969
0.0291545683752330136
0.0291545675676682242
0.0291545667817876657
0.0291545660137243097
0.0291545652621304704
0.0291545645281665183
0.0291545638125695096
0.0291545631147346954
0.0291545624334658207
0.029154561768008222
0.0291545611179672877
0.029154560482862163
0.0291545598619710571
0.0291545592544770332
0.029154558659631416
0.029154558076761778
0.0291545575052033247
0.0291545569442768424
0.0291545563933213112
0.0291545558517270556
0.0291545553189433183
0.0291545547944747942
0.0291545542778833718
0.0291545537687945382
0.0291545532668970007
0.0291545527719084818
0.0291545522834066873
0.0291545518006985221
0.0291545513230275846
0.0291545508478348939
0.0291545503738199173
0.029154549901631778
0.0291545494355402307
0.029154549001630347
0.0291545486569113887
0.029154548317536666
0.0291545479150415385
0.0291545474788283202
0.0291545470529534362
0.0291545466390436062
0.0291545462162794873
0.0291545458198150705
0.0291545454643988219
0.0291545451461646052
0.0291545448790197746
0.0291545445808046866
0.0291545442338151384
0.0291545438933768844
0.029154543577848014
0.0291545432585717558
0.0291545429183589985
0.0291545425649321968
0.029154542210370199
0.0291545418635944589
0.029154541534637677
0.0291545412351170916
0.0291545409634904502
0.0291545407010648933
0.0291545404395836816
0.0291545401735462568
0.0291545399111300257
0.0291545396598311274
0.0291545394431279338
0.0291545391567349099
0.0291545387935475651
0.0291545773178889904
0.0291545763365189323
0.0291545754646872976
0.0291545745643855339
0.0291545736127972535
0.0291545726658530117
0.0291545717640276821
0.0291545708961127095
0.029154570040936207
0.0291545691924926416
0.0291545683609746691
0.0291545675526717583
0.029154566766151184
0.0291545659975596602
0.0291545652456253641
0.0291545645114780101
0.0291545637957872812
0.0291545630978901384
0.0291545624166280361
0.0291545617512381158
0.0291545611012979586
0.0291545604663287147
0.0291545598456298231
0.0291545592384036129
0.0291545586439033652
0.0291545580614435765
0.0291545574903397976
0.0291545569298898022
0.0291545563794067819
0.0291545558382536457
0.0291545553058527411
0.029154554781684279
0.0291545542652851541
0.0291545537562437826
0.0291545532541812522
0.0291545527587059525
0.029154552269324216
0.0291545517853973764
0.0291545513063652638
0.0291545508321225978
0.0291545503609355432
0.0291545498877409728
0.0291545494100120262
0.0291545489242596538
0.0291545484092065113
0.0291545479542064598
0.0291545476026053782
0.029154547304317685
0.0291545469952290207
0.0291545466657875674
0.029154546322556138
0.0291545459289696586
0.0291545455063646278
0.0291545450885060189
0.0291545446442570619
0.0291545442505524062
0.029154543941592042
0.0291545436694351963
0.0291545433946269889
0.0291545431107456503
0.0291545428169325202
0.0291545425089929054
0.0291545421894864182
0.0291545418549929956
0.029154541519504213
0.0291545411922769886
0.0291545409089515942
0.029154540669337977
0.0291545404344875532
0.0291545401816950302
0.0291545399154473188
0.0291545396219338206
0.029154539274680643
0.029154538931697109
0.0291545386213613138
0.0291545772761242356
0.0291545762955677176
0.0291545754249500459
0.0291545745252632209
0.0291545735718158651
0.0291545726259620913
0.0291545717258652089
0.0291545708605777699
0.0291545700055788441
0.0291545691585948299
0.0291545683289672619
0.0291545675227395246
0.0291545667381105239
0.0291545659711901113
0.0291545652209916073
0.0291545644886436923
0.0291545637747468861
0.029154563078553946
0.0291545623989380338
0.0291545617351723942
0.0291545610868301705
0.0291545604533965871
0.0291545598341460821
0.0291545592282790346
0.0291545586350519526
0.0291545580537768689
0.0291545574837652546
0.0291545569243147652
0.0291545563747421625
0.0291545558344139359
0.0291545553027541121
0.0291545547792467392
0.0291545542634414345
0.0291545537549551745
0.0291545532534733046
0.0291545527587666609
0.0291545522707574653
0.0291545517897346187
0.0291545513168696667
0.0291545508549724518
0.0291545504082151435
0.0291545499820211919
0.0291545495805166782
0.0291545491980183397
0.0291545488122305907
0.0291545484056808142
0.029154547968107021
0.0291545475090467174
0.0291545470549814702
0.0291545465793931202
0.0291545461397485668
0.0291545457707289395
0.0291545454262859931
0.0291545450907215696
0.0291545447655411211
0.0291545444234092704
0.0291545440853809915
0.0291545437781981706
0.0291545434871839614
0.029154543185029861
0.0291545428611234593
0.0291545425207259436
0.0291545421624570603
0.029154541824040741
0.0291545415167645504
0.0291545412440962423
0.0291545409784818091
0.029154540726889229
0.0291545404778673842
0.0291545402087643631
0.0291545399090740696
0.0291545395965432073
0.0291545392773226095
0.0291545389701723355
0.0291545386710904755
0.0291545772645406091
0.029154576282916584
0.0291545754070971531
0.0291545744989048679
0.0291545735390379701
0.0291545725892403233
0.0291545716863370018
0.0291545708171419976
0.029154569958663959
0.0291545691086856108
0.0291545682772850201
0.0291545674700450543
0.0291545666845612478
0.0291545659169831495
0.0291545651665546524
0.0291545644344215135
0.0291545637210131568
0.0291545630254778365
0.0291545623466867923
0.0291545616839455658
0.0291545610368310615
0.0291545604047978857
0.0291545597870884222
0.0291545591828809326
0.0291545585914054807
0.0291545580119329482
0.0291545574437231704
0.0291545568860207931
0.0291545563380931488
0.0291545557992601498
0.0291545552689042413
0.0291545547464784824
0.0291545542315070662
0.0291545537235706961
0.0291545532222970138
0.0291545527273526298
0.0291545522383873761
0.0291545517548726166
0.0291545512757340891
0.0291545507986222495
0.0291545503188610534
0.0291545498294186745
0.0291545493240412991
0.0291545488057505173
0.0291545483011816861
0.0291545478693722299
0.029154547562137631
0.0291545473320600143
0.0291545470743184501
0.0291545467869010061
0.0291545463787141398
0.0291545458965109701
0.0291545454298750943
0.0291545449521630542
0.0291545445004499845
0.0291545441362610555
0.0291545438587725164
0.0291545436249467105
0.0291545433913130043
0.029154543138003336
0.0291545428616692727
0.0291545425651135864
0.0291545422275363321
0.0291545418419713737