/*--------------------------------*- C++ -*----------------------------------*\
  =========                 |
  \\      /  F ield         | OpenFOAM: The Open Source CFD Toolbox
   \\    /   O peration     | Website:  https://openfoam.org
    \\  /    A nd           | Version:  8
     \\/     M anipulation  |
\*---------------------------------------------------------------------------*/
FoamFile
{
    version     2.0;
    format      ascii;
    class       volScalarField;
    location    "0.3";
    object      H(s);
}
// * * * * * * * * * * * * * * * * * * * * * * * * * * * * * * * * * * * * * //

dimensions      [0 0 0 0 0 0 0];

internalField   uniform 0;

boundaryField
{
    reactingWall
    {
        type            fixedValue;
        value           nonuniform List<scalar> 
75
(
9.63290377009515313e-08
9.48397218132602759e-08
9.31141647260321551e-08
9.1174204502070632e-08
8.93704628741495231e-08
8.76042985138154703e-08
8.57401207014904232e-08
8.37362419266804779e-08
8.16870398523645611e-08
7.96165570108599403e-08
7.75160820588697796e-08
7.53724691504228892e-08
7.31869499208641299e-08
7.09729749219174837e-08
6.87167880099078414e-08
6.6414100588436866e-08
6.4064611219918582e-08
6.16745534316841422e-08
5.92588372216064762e-08
5.6824804353446174e-08
5.43757559119376886e-08
5.19159921985520044e-08
4.94496371037714518e-08
4.69796078803780452e-08
4.45134784981520239e-08
4.20594612464716431e-08
3.96216143211358644e-08
3.7216211436457931e-08
3.48554173191763618e-08
3.25595016669301893e-08
3.03585875649577457e-08
2.82834918217607368e-08
2.63520383146896099e-08
2.45535848798741574e-08
2.28883499366649529e-08
2.13453887761613414e-08
1.9921400762779879e-08
1.86147524103943569e-08
1.7418900868249392e-08
1.63231671904336963e-08
1.53204786560099655e-08
1.43967349538330943e-08
1.35423965347353012e-08
1.27470529481815603e-08
1.1998663687679397e-08
1.12851547248141738e-08
1.06064501671387699e-08
9.9594962382007982e-09
9.34704788021142236e-09
8.76465792826839736e-09
8.20225389180245927e-09
7.65759162046792119e-09
7.13279438515082824e-09
6.62903248703733594e-09
6.14756685236750995e-09
5.68875991914359816e-09
5.25174597835887373e-09
4.83653627386524508e-09
4.44645521717549478e-09
4.0847039832741489e-09
3.75447859718535792e-09
3.45331822789905637e-09
3.17296941995414189e-09
2.90838006884395424e-09
2.65710296173052203e-09
2.41669749349719134e-09
2.18659479161780856e-09
1.96829694414077219e-09
1.76675467035127056e-09
1.58502832206873985e-09
1.42559213637322129e-09
1.28496367664522461e-09
1.154952107924605e-09
1.03742951772838785e-09
8.69282706688047095e-10
)
;
    }
    inertWall
    {
        type            zeroGradient;
    }
    inlet
    {
        type            fixedValue;
        value           uniform 0;
    }
    outlet
    {
        type            zeroGradient;
    }
    defaultFaces
    {
        type            empty;
    }
}


// ************************************************************************* //
