/*--------------------------------*- C++ -*----------------------------------*\
  =========                 |
  \\      /  F ield         | OpenFOAM: The Open Source CFD Toolbox
   \\    /   O peration     | Website:  https://openfoam.org
    \\  /    A nd           | Version:  8
     \\/     M anipulation  |
\*---------------------------------------------------------------------------*/
FoamFile
{
    version     2.0;
    format      ascii;
    class       volScalarField;
    location    "0.3";
    object      N2;
}
// * * * * * * * * * * * * * * * * * * * * * * * * * * * * * * * * * * * * * //

dimensions      [0 0 0 0 0 0 0];

internalField   nonuniform List<scalar> 
1800
(
0.92000000000000004
0.92000000000000004
0.919999999999999929
0.919999999999999929
0.919999999999999929
0.919999999999999929
0.919999999999999929
0.919999999999999818
0.919999999999999818
0.919999999999999929
0.919999999999999929
0.92000000000000004
0.920000000000000373
0.920000000000003371
0.92000000000002613
0.919999999999999929
0.919999999999999929
0.92000000000000004
0.92000000000000004
0.92000000000000004
0.92000000000000004
0.919999999999999929
0.92000000000000004
0.92000000000000004
0.919999999999999929
0.919999999999999818
0.919999999999999818
0.919999999999999818
0.920000000000000373
0.920000000000002705
0.92000000000000004
0.92000000000000004
0.920000000000000151
0.92000000000000004
0.919999999999999929
0.919999999999999929
0.919999999999999929
0.919999999999999818
0.919999999999999818
0.919999999999999707
0.919999999999999818
0.919999999999999929
0.919999999999999929
0.919999999999999929
0.920000000000000373
0.919999999999999929
0.919999999999999929
0.919999999999999818
0.919999999999999929
0.919999999999999929
0.92000000000000004
0.919999999999999929
0.919999999999999818
0.919999999999999929
0.919999999999999929
0.919999999999999929
0.919999999999999929
0.919999999999999929
0.92000000000000004
0.92000000000000004
0.919999999999999929
0.919999999999999818
0.919999999999999929
0.919999999999999929
0.92000000000000004
0.92000000000000004
0.92000000000000004
0.920000000000000151
0.92000000000000004
0.920000000000000151
0.919999999999999929
0.919999999999999929
0.919999999999999929
0.92000000000000004
0.92000000000000004
0.919999999999999929
0.919999999999999929
0.919999999999999929
0.919999999999999929
0.919999999999999929
0.919999999999999929
0.919999999999999929
0.919999999999999929
0.919999999999999818
0.919999999999999929
0.919999999999999818
0.919999999999999818
0.919999999999999818
0.919999999999999929
0.919999999999999929
0.919999999999999929
0.919999999999999929
0.919999999999999929
0.919999999999999929
0.92000000000000004
0.92000000000000004
0.92000000000000004
0.92000000000000004
0.919999999999999929
0.919999999999999929
0.919999999999999818
0.919999999999999929
0.919999999999999929
0.919999999999999929
0.92000000000000004
0.919999999999999929
0.92000000000000004
0.92000000000000004
0.919999999999999929
0.92000000000000004
0.919999999999999929
0.919999999999999929
0.92000000000000004
0.92000000000000004
0.92000000000000004
0.919999999999999818
0.919999999999999707
0.919999999999999929
0.919999999999999929
0.920000000000000151
0.919999999999999929
0.92000000000000004
0.919999999999999929
0.919999999999999929
0.919999999999999929
0.919999999999999818
0.919999999999999818
0.919999999999999707
0.919999999999999707
0.919999999999999929
0.919999999999999929
0.919999999999999929
0.919999999999999929
0.919999999999999929
0.919999999999999929
0.92000000000000004
0.919999999999999929
0.919999999999999929
0.92000000000000004
0.919999999999999929
0.919999999999999929
0.919999999999999818
0.919999999999999929
0.919999999999999929
0.919999999999999818
0.919999999999999929
0.919999999999999929
0.92000000000000004
0.919999999999999929
0.919999999999999818
0.919999999999999818
0.919999999999999818
0.919999999999999818
0.919999999999999929
0.919999999999999929
0.919999999999999929
0.919999999999999818
0.919999999999999818
0.919999999999999818
0.919999999999999818
0.919999999999999818
0.919999999999999929
0.919999999999999929
0.919999999999999818
0.919999999999999818
0.919999999999999929
0.919999999999999929
0.919999999999999818
0.919999999999999929
0.919999999999999929
0.92000000000000004
0.92000000000000004
0.919999999999999929
0.919999999999999929
0.919999999999999929
0.919999999999999929
0.919999999999999818
0.919999999999999929
0.919999999999999818
0.919999999999999818
0.919999999999999929
0.919999999999999929
0.92000000000000004
0.92000000000000004
0.920000000000000151
0.92000000000000004
0.92000000000000004
0.92000000000000004
0.919999999999999929
0.919999999999999929
0.919999999999999818
0.919999999999999818
0.919999999999999818
0.919999999999999818
0.919999999999999929
0.919999999999999929
0.92000000000000004
0.92000000000000004
0.92000000000000004
0.919999999999999929
0.919999999999999929
0.92000000000000004
0.92000000000000004
0.919999999999999929
0.919999999999999707
0.919999999999999818
0.919999999999999929
0.919999999999999929
0.919999999999999929
0.92000000000000004
0.92000000000000004
0.919999999999999929
0.919999999999999929
0.919999999999999929
0.919999999999999929
0.919999999999999929
0.919999999999999818
0.919999999999999929
0.919999999999999818
0.919999999999999818
0.919999999999999929
0.919999999999999929
0.919999999999999929
0.919999999999999929
0.92000000000000004
0.92000000000000004
0.92000000000000004
0.919999999999999929
0.919999999999999929
0.92000000000000004
0.919999999999999929
0.919999999999999929
0.92000000000000004
0.920000000000000151
0.92000000000000004
0.919999999999999929
0.92000000000000004
0.92000000000000004
0.92000000000000004
0.92000000000000004
0.919999999999999929
0.919999999999999818
0.919999999999999929
0.919999999999999929
0.919999999999999929
0.919999999999999929
0.919999999999999929
0.919999999999999929
0.919999999999999818
0.919999999999999818
0.919999999999999929
0.919999999999999929
0.919999999999999929
0.919999999999999929
0.92000000000000004
0.919999999999999929
0.919999999999999929
0.919999999999999929
0.919999999999999929
0.919999999999999929
0.919999999999999929
0.92000000000000004
0.919999999999999929
0.92000000000000004
0.92000000000000004
0.92000000000000004
0.92000000000000004
0.919999999999999929
0.919999999999999929
0.920000000000000595
0.92000000000000004
0.919999999999999818
0.919999999999999929
0.92000000000000004
0.92000000000000004
0.92000000000000004
0.92000000000000004
0.920000000000000151
0.920000000000000151
0.92000000000000004
0.919999999999999818
0.919999999999999929
0.920000000000000151
0.920000000000000706
0.920000000000009477
0.920000000000000151
0.92000000000000004
0.92000000000000004
0.92000000000000004
0.919999999999999929
0.919999999999999818
0.919999999999999929
0.919999999999999818
0.919999999999999929
0.92000000000000004
0.920000000000000151
0.920000000000000262
0.920000000000000595
0.920000000000005258
0.920000000000133822
0.920000000000098295
0.92000000000038451
0.920000000001561902
0.920000000006456653
0.920000000026637954
0.920000000107834004
0.920000000422688702
0.920000001588485383
0.920000005681987476
0.920000019242058986
0.920000061409515402
0.920000183636602742
0.920000510017130013
0.92000129988791457
0.920002996387972338
0.920006377592466618
0.920012968257646557
0.920025479905677956
0.920048589974050479
0.920090104341061199
0.920162593911226234
0.920285456374912547
0.920487284075815926
0.920795967016919015
0.921246350050696883
0.921876021377322497
0.922714454435875298
0.923786483694406968
0.925111972695813689
0.926697915969338593
0.928541481878649821
0.930633601414895484
0.932956352525293409
0.935480073287644265
0.938160432989198823
0.940938486485567993
0.943744281968135978
0.946502435458665192
0.949147450935544978
0.951633908920356708
0.953931354049055602
0.956027885465813632
0.957933725873017838
0.959651766543220042
0.961171324198394794
0.962502012307342003
0.963772718109207616
0.965299640447583651
0.966900832180157432
0.968310743258812723
0.969414985618518243
0.970524698928304286
0.971678373255523753
0.972820826991467213
0.973912901814708132
0.974957866019592223
0.975976123449777133
0.977019815687171
0.978225901429739531
0.979622140643481076
0.981036611898890243
0.982047204373168281
0.982950025074431855
0.983804717201187118
0.984590360111684992
0.985295228014617774
0.986078545770248671
0.987023485181140914
0.988093619353783037
0.989023437593833932
0.989717342571208691
0.990521155816192933
0.991508756946894887
0.992125253533543527
0.99277756660211558
0.920000000000009921
0.920000000000036899
0.920000000000141593
0.920000000000555929
0.92000000000219595
0.920000000008575181
0.92000000003264526
0.920000000119847727
0.920000000420988062
0.920000001407019985
0.920000004454055165
0.920000013288631568
0.920000037102510215
0.920000095939550011
0.920000224271445788
0.920000479464480603
0.920000974585286069
0.920001909721027356
0.920003629965572611
0.920006713526088538
0.920012098959111735
0.920021257296597672
0.920036408742505918
0.920060780099485109
0.920098585429492077
0.920156467026929992
0.92024316054880817
0.920357945432063951
0.920513142281453423
0.920720348504522335
0.920980451573379821
0.921301323648333392
0.921690095559547062
0.922154005443046043
0.922693095800546259
0.923303922589487347
0.924002996494034612
0.924774357824390769
0.925581212338140391
0.92649170235493683
0.927505483555783106
0.928421568122786978
0.929385872316976225
0.930638268573421246
0.93191602155858122
0.933068601605274495
0.934239935895012419
0.935167215369842708
0.935946661043923656
0.936982338599223641
0.938407922245794834
0.939566350757741975
0.940568943452278705
0.941888839638502562
0.943567147812414908
0.944946405395335365
0.945678191334490159
0.946173196318090048
0.946803454882954698
0.947665095056739237
0.94882187636033366
0.950193860210739483
0.95206328349553393
0.954388077844797955
0.956695246791627096
0.958043641805078838
0.958587972202632033
0.959214748753612789
0.960109779757015835
0.961385540434775865
0.963156075838781711
0.96471715234642863
0.96584919429207361
0.967676326833367018
0.969921015848117407
0.92000000000000115
0.920000000000003926
0.920000000000014695
0.920000000000055329
0.920000000000210427
0.920000000000795515
0.920000000002951679
0.920000000010617436
0.920000000036709897
0.920000000121262929
0.920000000380912009
0.920000001132472711
0.920000003166740354
0.920000008248052281
0.920000019436987504
0.92000004168142735
0.920000084775572935
0.920000165996937347
0.920000315131302093
0.920000582234493991
0.920001049171753627
0.920001846041016536
0.92000317353093175
0.92000533228377479
0.920008766618801155
0.920014141259666851
0.920022477540464845
0.920033942961597906
0.920049591233066399
0.920072773968171442
0.920101772098335768
0.920141896553311134
0.920189805227384472
0.920251716589700508
0.920338068422134392
0.92042701424326645
0.920528810072337222
0.920672887488629299
0.920829657865169238
0.920978349764834392
0.921181709102950608
0.921417785273999979
0.921627957015599408
0.921899526605299391
0.922231266504597413
0.922531854472040669
0.922801003015274901
0.923061930212796589
0.923325013226820257
0.923678172953630527
0.924163143101501383
0.924693752114862266
0.925062878470771843
0.9255144630219313
0.926141029471039157
0.926552103898682589
0.926887623924622539
0.927311513013429956
0.927664051112599863
0.927960542024845458
0.928366234588120065
0.928926363847965009
0.92948010535939396
0.930210092011496403
0.931055758418118495
0.931741470990384624
0.932419042077012761
0.933063932287280129
0.933680933563092785
0.934291840539279494
0.934890554433622012
0.935617949148275785
0.936654436014021208
0.937875433836504624
0.939524413070453202
0.920000000000000151
0.920000000000000373
0.920000000000001483
0.92000000000000548
0.920000000000019691
0.920000000000071316
0.920000000000256835
0.920000000000901097
0.920000000003054375
0.92000000000993587
0.920000000030868792
0.920000000091175663
0.920000000254579731
0.920000000665662898
0.920000001575487336
0.920000003383442788
0.920000006880785981
0.920000013459068344
0.920000025515217201
0.920000047086322326
0.920000084817651831
0.920000149400574174
0.920000257667172305
0.920000435626858626
0.920000722913236313
0.920001179294353211
0.920001891673529748
0.92000295771609597
0.920004428339706526
0.920006623514122324
0.920009633429740736
0.920013976066319072
0.920019110577839028
0.92002636750845157
0.92003691166367485
0.920048538499409374
0.92006182997091801
0.920080904263245736
0.920105832491751485
0.920127872624452614
0.920157604165231624
0.920198948828135244
0.920238078193179265
0.920279987465698279
0.920336511678631175
0.920404467668403448
0.920460773485885064
0.920528499027787883
0.920611287067399253
0.920684610869097919
0.920774477064473906
0.92089909680615778
0.921007368997169951
0.921116299409938
0.921268868371932004
0.921402999506796716
0.92148838145462808
0.921583795899517999
0.921665226353773903
0.921762070824177382
0.92189404828452659
0.922052135886334945
0.922196711038428818
0.922389303647007996
0.922613814291059708
0.922788477982830924
0.922942583973303199
0.92308956086959626
0.923285143972547684
0.923488794722280515
0.923685491781660928
0.923925321660931109
0.924230226304806779
0.924641974673938494
0.925239821710088339
0.919999999999999929
0.919999999999999929
0.92000000000000004
0.920000000000000373
0.920000000000001594
0.920000000000006257
0.920000000000021689
0.920000000000074869
0.920000000000249396
0.920000000000799401
0.920000000002456964
0.92000000000720894
0.920000000020085529
0.920000000052635603
0.920000000125072548
0.920000000269110219
0.92000000054785025
0.920000001072245222
0.920000002033615538
0.920000003755132911
0.920000006771526602
0.920000011949768437
0.920000020668113483
0.920000035076618428
0.920000058466525883
0.920000095765323933
0.920000154126613956
0.920000243618993907
0.920000376212653181
0.920000573122844667
0.920000860753161342
0.920001283381518875
0.920001805544754525
0.92000256677010761
0.920003700768668109
0.920005012090765351
0.920006587192684688
0.920008847507107541
0.920012071666077014
0.920015020849804244
0.920019065542364567
0.920024853376745222
0.9200304155648934
0.920037011469054256
0.920045062995782148
0.920055860388074187
0.920065812703481978
0.920076345702500298
0.92009082137313114
0.920106925681458243
0.920123612827874138
0.92014641615998205
0.920171612668083005
0.920192975833598936
0.920221621127471301
0.920253176938078621
0.920276447542123788
0.920301129748808622
0.920329934032409813
0.920356854119868451
0.920386857955884929
0.920427479633685874
0.92046801085015939
0.92050398757420715
0.920551333535160499
0.920600886579283961
0.920629897218690818
0.920660743567328632
0.920700384596650157
0.920738466429289026
0.920788617051625069
0.920848928039278536
0.920929581800823183
0.921034786789317828
0.921205171884288521
0.919999999999999818
0.919999999999999707
0.919999999999999818
0.919999999999999929
0.92000000000000004
0.920000000000000484
0.920000000000001705
0.920000000000006035
0.920000000000019691
0.92000000000006199
0.920000000000188334
0.920000000000548268
0.920000000001522711
0.920000000003993179
0.920000000009523977
0.920000000020535058
0.920000000041873656
0.920000000082077052
0.920000000155903774
0.920000000288377362
0.920000000521120853
0.920000000922086336
0.920000001600216222
0.920000002727118016
0.920000004568380492
0.920000007527303265
0.920000012202694784
0.920000019460825214
0.920000030534754099
0.920000047199557858
0.920000071963070543
0.92000010873636251
0.920000158712733218
0.920000232393267003
0.920000342491871792
0.920000474082533715
0.920000644206695473
0.920000888917002602
0.920001244077308211
0.9200015942677926
0.920002080634764297
0.920002782146392639
0.920003514725377558
0.92000433132731041
0.920005430822850911
0.920006934724728498
0.920008363861629874
0.920010050403652357
0.920012336338461356
0.920014768631703506
0.920017396858603065
0.920020929795796194
0.920025029737786548
0.92002888388149584
0.920033787567509087
0.920039895202655167
0.920045152165277935
0.920049780565221353
0.920055876855039756
0.920062597241289581
0.92006898789283742
0.920077308571007446
0.920086773040061701
0.920094781460087829
0.920103311632142873
0.920115019744023321
0.920123906966803573
0.920130209446979097
0.920136769935747445
0.920145331233794717
0.920156994124985972
0.920172427591686604
0.920193577903523963
0.920224849177561977
0.920277399865180423
0.92000000000000004
0.920000000000000151
0.920000000000000151
0.919999999999999929
0.92000000000000004
0.92000000000000004
0.920000000000000151
0.920000000000000484
0.920000000000001594
0.920000000000004703
0.920000000000013807
0.920000000000039786
0.920000000000110063
0.920000000000288476
0.920000000000691043
0.920000000001493845
0.920000000003052931
0.920000000005997909
0.920000000011420904
0.920000000021182318
0.920000000038394661
0.920000000068173174
0.920000000118784356
0.920000000203366364
0.920000000342460433
0.920000000567650078
0.920000000926653683
0.920000001490315134
0.920000002362153402
0.920000003691827661
0.92000000569246998
0.920000008665254332
0.92000001302818335
0.920000019444023209
0.920000028980844986
0.920000041020202941
0.920000057821939721
0.920000081741375597
0.920000116576363491
0.920000154009017468
0.920000206639028595
0.920000282551040049
0.920000366458902263
0.920000462441235456
0.920000592679017903
0.92000077159445004
0.920000954626449818
0.920001169431978183
0.92000145742399575
0.920001806757479779
0.920002183709271781
0.920002685038601165
0.920003286792108521
0.920003881471902041
0.920004638046441059
0.920005618444144968
0.920006515996328655
0.920007336235401096
0.920008408973367664
0.920009646765947764
0.920010957696019593
0.920012538722471795
0.920014296648844154
0.920016055801265331
0.920017970094682447
0.920019947097225677
0.920021737095086167
0.920023617648203174
0.920026050016017782
0.920029334381340935
0.920033892554991017
0.92004046572138598
0.920050444421372404
0.920066687228550562
0.920095647638667025
0.920000000000000151
0.920000000000000262
0.920000000000000151
0.920000000000000262
0.920000000000000262
0.920000000000000262
0.920000000000000151
0.920000000000000151
0.920000000000000151
0.920000000000000373
0.920000000000000817
0.920000000000002705
0.920000000000007589
0.920000000000019802
0.920000000000047558
0.920000000000103069
0.920000000000211315
0.920000000000416374
0.920000000000795293
0.920000000001479856
0.920000000002692109
0.920000000004799534
0.920000000008400654
0.920000000014455144
0.920000000024478237
0.920000000040826382
0.920000000067109358
0.920000000108773475
0.92000000017391903
0.920000000274428742
0.920000000427493081
0.920000000657690387
0.920000000999669387
0.920000001502969456
0.92000000223529721
0.920000003277086975
0.920000004748280142
0.920000006836129813
0.920000009855893031
0.92000001344568183
0.92000001850062374
0.920000025697487289
0.920000034206773121
0.920000044283642682
0.920000058077253158
0.920000077165924024
0.920000098317108383
0.920000124059041524
0.920000158458152972
0.920000201265868567
0.920000247958630557
0.920000310115346109
0.920000384499649715
0.920000464997805079
0.920000570551673946
0.920000705289156895
0.920000841689966431
0.920000983151378793
0.920001155240668833
0.920001356133318682
0.920001583188334471
0.920001845456459577
0.920002142039906823
0.920002483355234157
0.920002914576856456
0.920003488401582303
0.920004261591865991
0.920005330026140378
0.920006856198972378
0.920009110974651767
0.920012548967147237
0.920017955846488933
0.920026770648058156
0.92004185591223453
0.920069435462885332
0.92000000000000004
0.92000000000000004
0.92000000000000004
0.92000000000000004
0.92000000000000004
0.920000000000000151
0.92000000000000004
0.92000000000000004
0.920000000000000151
0.92000000000000004
0.92000000000000004
0.920000000000000151
0.920000000000000373
0.92000000000000115
0.920000000000003038
0.920000000000006701
0.920000000000013918
0.920000000000027462
0.920000000000052554
0.920000000000097962
0.920000000000179119
0.920000000000320561
0.920000000000563922
0.920000000000975704
0.920000000001661933
0.920000000002789808
0.920000000004618124
0.920000000007542673
0.920000000012160313
0.920000000019359443
0.920000000030446352
0.920000000047316524
0.920000000072690227
0.920000000110431149
0.92000000016591954
0.920000000246323446
0.920000000361581249
0.920000000525264205
0.920000000755226144
0.920000001072215357
0.920000001508054943
0.920000002107736359
0.920000002874703071
0.920000003865339977
0.920000005189862691
0.92000000698239226
0.920000009188319035
0.920000011883504554
0.920000015469859767
0.920000020139009944
0.920000025685948186
0.920000032880503915
0.920000041836920746
0.920000052669981971
0.920000066482468681
0.920000083396545154
0.920000103282930137
0.920000128357844948
0.920000161716471698
0.920000206425248157
0.92000026706096194
0.920000350840754155
0.920000469259309117
0.920000640867769781
0.920000895833352872
0.920001283113861201
0.920001881874872862
0.920002820536783394
0.920004307813813815
0.920006683932593328
0.920010505764019659
0.920016693727672141
0.920026825822230609
0.920043878045939012
0.920074393635570087
0.919999999999999707
0.919999999999999707
0.919999999999999707
0.919999999999999818
0.919999999999999929
0.919999999999999929
0.919999999999999818
0.919999999999999929
0.919999999999999818
0.919999999999999707
0.919999999999999929
0.92000000000000004
0.92000000000000004
0.920000000000000262
0.920000000000000262
0.920000000000000373
0.920000000000000706
0.920000000000001483
0.92000000000000326
0.920000000000006146
0.920000000000011475
0.920000000000020801
0.920000000000036788
0.920000000000064322
0.920000000000110396
0.920000000000186779
0.920000000000311791
0.92000000000051374
0.920000000000836038
0.920000000001344187
0.920000000002136442
0.92000000000335791
0.920000000005220642
0.920000000008031504
0.920000000012229147
0.920000000018430963
0.920000000027502152
0.920000000040641197
0.920000000059478129
0.920000000086137693
0.920000000123554318
0.920000000175643984
0.920000000247270577
0.920000000345138735
0.920000000479266333
0.920000000663112605
0.92000000091371148
0.920000001254455801
0.920000001719092908
0.920000002354868562
0.920000003228526264
0.920000004439971653
0.920000006137498216
0.920000008544974324
0.920000012012580193
0.92000001708362622
0.920000024604169186
0.920000035905605085
0.920000053108382398
0.920000079628144674
0.920000120956552148
0.920000185926013958
0.920000288736555705
0.920000452199634
0.920000712709094559
0.920001129772411108
0.920001801670697228
0.920002891581726878
0.920004671139329488
0.920007597089133822
0.920012446680619433
0.920020512782028344
0.920033832872568347
0.920053982029192641
0.920069418227190905
0.919999999999999818
0.919999999999999818
0.919999999999999929
0.919999999999999929
0.919999999999999929
0.92000000000000004
0.920000000000000151
0.920000000000000151
0.920000000000000262
0.920000000000000262
0.920000000000000262
0.920000000000000151
0.920000000000000151
0.920000000000000151
0.920000000000000151
0.920000000000000151
0.920000000000000373
0.920000000000000595
0.92000000000000115
0.92000000000000226
0.920000000000004148
0.920000000000007589
0.920000000000013474
0.920000000000023688
0.920000000000040896
0.920000000000069651
0.920000000000116946
0.920000000000193774
0.920000000000317564
0.920000000000514406
0.920000000000824936
0.920000000001309326
0.920000000002057949
0.920000000003204144
0.920000000004944307
0.920000000007563989
0.92000000001147697
0.920000000017278108
0.920000000025816611
0.9200000000382903
0.920000000056399259
0.920000000082538461
0.920000000120089201
0.920000000173873178
0.920000000250856931
0.920000000360920556
0.920000000518553351
0.920000000745309188
0.920000001073288498
0.920000001548251789
0.920000002241165848
0.920000003267692046
0.920000004819883754
0.920000007213804261
0.920000011040860821
0.920000017517017321
0.920000029345880765
0.920000045227755803
0.920000064349871249
0.920000097922342386
0.920000155763361915
0.92000025566075172
0.920000430170601513
0.920000747957125387
0.920001108065390927
0.920001618706276059
0.92000236214752984
0.920003711635742571
0.920006105945548436
0.920010314967735443
0.920017645103417436
0.920025804437606398
0.920033444599348216
0.920041968944069533
0.920053148640255225
0.919999999999999818
0.919999999999999818
0.919999999999999707
0.919999999999999818
0.919999999999999929
0.919999999999999929
0.92000000000000004
0.920000000000000151
0.92000000000000004
0.92000000000000004
0.92000000000000004
0.920000000000000262
0.920000000000000373
0.920000000000000484
0.920000000000000928
0.920000000000002038
0.920000000000004259
0.920000000000008478
0.920000000000016249
0.920000000000030571
0.920000000000056217
0.920000000000101514
0.920000000000179785
0.920000000000312901
0.920000000000536056
0.920000000000904872
0.920000000001506058
0.920000000002473839
0.920000000004012941
0.92000000000643134
0.920000000010189112
0.920000000015966157
0.92000000002475868
0.920000000038010413
0.920000000057784817
0.920000000087001668
0.920000000129774675
0.920000000191868117
0.920000000281262942
0.920000000408766061
0.920000000588853561
0.920000000841020071
0.920000001191728867
0.920000001676033352
0.920000002332223898
0.920000003207892214
0.920000004375022939
0.920000005942891774
0.920000008069637998
0.920000010943475832
0.920000014904989727
0.92000002073524989
0.92000003046596579
0.920000039834890093
0.920000049336404557
0.920000060669822206
0.920000078183926262
0.920000105503720356
0.920000147892903186
0.920000214900001168
0.920000323512545126
0.920000504300705568
0.920000815933889049
0.920001367995378239
0.920002037254568306
0.920002881019520657
0.920004147952986573
0.920005732831485346
0.92000809989515786
0.920010326363495778
0.920013022803130465
0.920017214690856178
0.9200227562508555
0.920029265221410153
0.920040572289758884
0.919999999999999818
0.919999999999999818
0.919999999999999707
0.919999999999999707
0.919999999999999818
0.919999999999999929
0.919999999999999929
0.92000000000000004
0.920000000000000151
0.920000000000000151
0.920000000000000373
0.920000000000000817
0.920000000000002371
0.920000000000006035
0.920000000000014806
0.920000000000033014
0.920000000000068874
0.920000000000137708
0.92000000000026616
0.920000000000500306
0.920000000000918527
0.920000000001650164
0.920000000002906715
0.920000000005028684
0.920000000008555419
0.92000000001433313
0.920000000023671327
0.920000000038568189
0.920000000062022094
0.920000000098472936
0.920000000154446607
0.920000000239489468
0.920000000367475201
0.920000000558299225
0.920000000839891641
0.920000001251167543
0.920000001846860593
0.920000002704456143
0.920000003930339316
0.920000005647987895
0.920000008012248682
0.920000011234154869
0.920000015619581446
0.920000021597085937
0.920000029623308624
0.920000039530773916
0.920000052903031107
0.920000072057695406
0.920000103225033339
0.920000130352040202
0.920000156466595942
0.92000018549727236
0.920000223293498065
0.92000027225806158
0.920000334884190196
0.920000411592871492
0.920000510748523959
0.92000063891150996
0.920000804422566265
0.920001028534426113
0.92000134520807586
0.920001826319475802
0.920002642594338726
0.920003323920919103
0.920003996634638499
0.920004683076274477
0.920005521451829567
0.920006641791739743
0.92000801917144448
0.920009728968531282
0.920012154427476414
0.920015163018407356
0.920019353023596276
0.920025625417748238
0.920036286701715778
0.919999999999999929
0.919999999999999929
0.92000000000000004
0.92000000000000004
0.919999999999999929
0.919999999999999929
0.92000000000000004
0.920000000000000151
0.920000000000000484
0.920000000000001483
0.920000000000004592
0.920000000000013252
0.920000000000036566
0.920000000000096074
0.920000000000238516
0.920000000000533391
0.920000000001112928
0.920000000002221263
0.920000000004284835
0.920000000008031615
0.920000000014681074
0.920000000026236608
0.920000000045929411
0.920000000078881608
0.920000000133116225
0.920000000221097736
0.920000000361981929
0.920000000584689559
0.920000000931809891
0.920000001465197892
0.920000002274925732
0.920000003493387286
0.920000005315340541
0.920000008018340032
0.920000011946266349
0.920000017547386695
0.920000025478662664
0.920000036716609793
0.920000052605592256
0.920000074526964973
0.920000104304327659
0.920000145144255321
0.92000020432178431
0.920000301465581205
0.920000392542628442
0.920000480687290123
0.920000586108930984
0.92000071972300268
0.920000870965354878
0.920001070790251951
0.920001336790890245
0.920001673243167839
0.920002043994515462
0.920002495972873091
0.920003045211726267
0.92000373608330932
0.920004684466490863
0.920006155212383603
0.920006981315681371
0.920007758556450228
0.920008909191286417
0.920010666507612984
0.920011955219712574
0.920013100652817495
0.920014338561019218
0.920015678516545199
0.920017314603594816
0.920019260978334974
0.920021311589525159
0.920023926199974085
0.920027266749103956
0.920030856459310931
0.920035686339268133
0.920042693395469402
0.920054350302014434
0.92000000000000004
0.920000000000000151
0.920000000000000151
0.920000000000000151
0.920000000000000151
0.920000000000000262
0.920000000000000706
0.920000000000002705
0.920000000000008145
0.920000000000024798
0.920000000000073537
0.920000000000210316
0.920000000000577467
0.920000000001514717
0.920000000003757479
0.920000000008415308
0.920000000017563768
0.920000000035023469
0.920000000067398904
0.920000000125860473
0.920000000228914927
0.920000000406621887
0.920000000706831411
0.92000000120421932
0.920000002014709328
0.920000003319120241
0.920000005397837106
0.92000000867048648
0.920000013698531349
0.920000021242507682
0.920000032415744462
0.920000048917837265
0.920000073325188739
0.920000109354094042
0.920000161181034226
0.920000234387414406
0.920000339331646821
0.920000498259055277
0.920000765622271732
0.920001051017591331
0.920001362842837955
0.920001721319798071
0.920002178189525788
0.920002785834085901
0.920003484145002992
0.92000439446815041
0.920005598790389789
0.920006958788749829
0.920008359293562838
0.920010092295218573
0.920012447911764952
0.92001500200170605
0.920018203852736249
0.920022606060536985
0.920029435493032954