/*--------------------------------*- C++ -*----------------------------------*\
  =========                 |
  \\      /  F ield         | OpenFOAM: The Open Source CFD Toolbox
   \\    /   O peration     | Website:  https://openfoam.org
    \\  /    A nd           | Version:  8
     \\/     M anipulation  |
\*---------------------------------------------------------------------------*/
FoamFile
{
    version     2.0;
    format      ascii;
    class       volScalarField;
    location    "0.3";
    object      p;
}
// * * * * * * * * * * * * * * * * * * * * * * * * * * * * * * * * * * * * * //

dimensions      [1 -1 -2 0 0 0 0];

internalField   nonuniform List<scalar> 
1800
(
101325.245622300688
101325.211860046795
101325.194466239889
101325.191838972692
101325.18923673543
101325.182989433961
101325.1759541715
101325.170156616776
101325.165324918809
101325.160542950602
101325.155514249855
101325.150452671325
101325.145556820455
101325.140814813538
101325.136134473083
101325.216170298416
101325.204898810101
101325.194012389809
101325.189655485083
101325.186607962285
101325.181412413629
101325.175167277004
101325.169626180272
101325.164898212504
101325.160257716168
101325.155380581971
101325.150438852332
101325.145640757066
101325.141003138255
101325.136450060672
101325.215111743149
101325.206582978237
101325.195853791665
101325.189704682853
101325.186249060062
101325.181705986135
101325.175869456711
101325.170277367273
101325.165425229396
101325.160785589833
101325.155972092994
101325.151075097077
101325.146295709405
101325.141679333334
101325.137185751795
101325.202822315303
101325.198261163619
101325.191748573576
101325.187092808279
101325.183860266188
101325.179842271245
101325.174688221916
101325.169497773095
101325.164824391293
101325.160352518913
101325.155733898762
101325.151003731095
101325.146347615475
101325.141839809934
101325.137463257706
101325.201648196569
101325.198790894545
101325.193211019607
101325.187909906308
101325.183876426192
101325.179831057001
101325.17502817254
101325.169990960581
101325.165255811546
101325.160734042976
101325.156151189338
101325.151478216736
101325.146854647464
101325.142364657018
101325.138007588859
101325.195801316426
101325.193433642809
101325.189240323874
101325.185181632274
101325.18180297142
101325.17824547457
101325.173952464072
101325.169283697498
101325.164734197053
101325.160343384268
101325.155913010094
101325.15138502128
101325.146864339928
101325.142442304728
101325.138132038614
101325.195012749973
101325.193637658143
101325.190320737252
101325.186229376108
101325.182342625179
101325.178498045323
101325.174242360095
101325.169657928578
101325.16509071624
101325.160645072785
101325.15620294871
101325.151695217472
101325.147189190073
101325.142767559475
101325.138451755891
101325.192218813798
101325.190683776353
101325.187581851802
101325.184024673319
101325.180655728458
101325.177228119806
101325.17333793563
101325.169043788759
101325.164655643734
101325.16031948576
101325.155981779972
101325.151574849166
101325.147148576332
101325.14277946105
101325.138492164726
101325.192090229306
101325.191109116466
101325.188611007863
101325.185161495261
101325.181507118119
101325.177783329666
101325.173770427165
101325.16942884856
101325.164970448168
101325.160564136546
101325.156182767809
101325.151768160445
101325.147330107502
101325.142935813637
101325.138631984984
101325.191062183629
101325.1898411773
101325.187132267267
101325.18374015452
101325.180353380769
101325.176931036811
101325.173148954447
101325.168979103357
101325.164646924692
101325.16033225233
101325.156020086593
101325.15165895049
101325.147265542299
101325.142906492954
101325.138623735722
101325.191079239041
101325.189858423779
101325.187149540609
101325.183755921666
101325.18035952744
101325.176939939716
101325.173175427815
101325.169001835588
101325.164660448616
101325.160336282279
101325.156033704276
101325.151679989925
101325.14728484767
101325.142918957456
101325.138630728674
101325.192098302359
101325.191120461765
101325.188620069341
101325.185174844097
101325.181517904304
101325.17779514569
101325.173778960772
101325.169435998017
101325.164983121664
101325.160573869638
101325.1561947234
101325.151774037236
101325.147335241811
101325.142946290885
101325.138641784375
101325.19221915555
101325.190684269823
101325.187586794811
101325.184021016248
101325.180648372654
101325.177223328486
101325.173348594253
101325.169053979233
101325.164650235107
101325.160310264357
101325.15597602466
101325.151582519917
101325.147156010702
101325.142774933818
101325.138485785981
101325.195013154109
101325.193638333381
101325.19032215068
101325.186227455401
101325.182339166713
101325.178496553388
101325.174246845549
101325.169662080734
101325.165088527356
101325.160640491871
101325.156200317855
101325.151697902955
101325.147191895507
101325.142765581622
101325.138448418715
101325.195801638751
101325.193434089539
101325.189240694235
101325.185180590808
101325.181801356797
101325.178245017392
101325.173954376616
101325.169285364726
101325.164733179365
101325.160341095761
101325.155911643262
101325.151385799429
101325.146865159084
101325.142441236661
101325.138130192689
101325.201648453323
101325.198791149567
101325.193211071528
101325.187909331071
101325.183875655857
101325.179830899506
101325.175028962025
101325.169991569433
101325.165255232161
101325.160732817982
101325.156150354785
101325.151478246262
101325.146854692925
101325.142363916792
101325.138006441281
101325.202822487205
101325.198261301208
101325.191748548852
101325.18709248607
101325.183859875862
101325.1798421805
101325.174688507235
101325.16949792589
101325.164823982559
101325.16035177336
101325.155733297477
101325.151003472376
101325.146347351227
101325.141839204269
101325.137462450046
101325.215111865007
101325.206583056482
101325.195853754194
101325.189704494405
101325.186248841506
101325.181705903116
101325.175869511542
101325.170277321915
101325.165424895022
101325.160785065251
101325.15597160341
101325.151074733163
101325.146295331011
101325.141678801883
101325.137185127576
101325.216170382977
101325.204898857017
101325.194012355743
101325.189655361872
101325.18660781598
101325.18141232217
101325.175167226844
101325.169626049319
101325.164897910028
101325.160257289477
101325.155380144715
101325.150438453973
101325.145640341492
101325.14100264947
101325.136449533515
101325.24562236623
101325.211860078489
101325.194466209388
101325.191838879269
101325.189236619466
101325.182989339126
101325.175954081657
101325.170156455468
101325.165324631496
101325.160542565049
101325.155513836129
101325.150452264046
101325.145556396237
101325.140814348255
101325.136133994733
101325.132472369747
101325.129608914329
101325.126343063792
101325.12270057945
101325.119159938433
101325.115901989149
101325.11280302293
101325.109740801781
101325.106713152185
101325.103767187451
101325.100921797261
101325.09816365155
101325.095477653973
101325.092860810706
101325.090315668451
101325.087842013236
101325.085436102294
101325.083093734997
101325.080811856518
101325.07858800031
101325.076419425313
101325.074302993773
101325.07223484492
101325.07021275819
101325.068233054291
101325.066292415766
101325.06438795646
101325.062516327045
101325.060674510692
101325.058860241523
101325.057071191797
101325.05530497634
101325.05355957344
101325.051833346399
101325.050124960515
101325.04843383655
101325.046758854762
101325.045100157935
101325.043455732768
101325.041823288571
101325.040198470175
101325.038568133925
101325.036904949447
101325.035173690805
101325.033385444331
101325.031904117306
101325.031400692387
101325.031411027638
101325.031136658275
101325.029785525461
101325.02724825115
101325.024932532193
101325.023140618796
101325.021520521215
101325.019950564994
101325.018079053902
101325.016337871348
101325.016265818194
101325.016821417565
101325.017490288941
101325.017423190453
101325.015588807495
101325.012826292514
101325.01072512973
101325.008874794745
101325.006783263481
101325.005350101972
101325.005544191299
101325.005904742953
101325.005758195359
101325.005846953325
101325.005776256279
101325.004310580465
101325.001626699246
101324.999408174423
101325.132752816324
101325.129792823529
101325.126557977361
101325.122992552744
101325.119492942758
101325.116242488511
101325.113149483659
101325.110098567122
101325.107078420391
101325.104131704706
101325.101280686154
101325.098515895355
101325.095822516465
101325.093196439717
101325.090640171184
101325.088154389989
101325.085736028996
101325.083381004864
101325.081086237711
101325.078849396828
101325.076667970934
101325.07453895529
101325.072459050876
101325.070425275087
101325.068434481058
101325.066483575312
101325.064569407361
101325.062688827617
101325.060838921752
101325.059017650972
101325.057222663308
101325.05545182545
101325.053703512633
101325.051976500225
101325.050269654195
101325.048584906122
101325.046921287212
101325.045285547763
101325.043679364127
101325.042109725677
101325.040590231773
101325.039125035895
101325.037695322739
101325.036250437421
101325.034775826367
101325.033464692955
101325.03140205481
101325.029530878106
101325.028643534664
101325.027801027056
101325.027125301058
101325.025841594368
101325.023896884843
101325.02242576654
101325.02139211644
101325.02064172973
101325.020214447795
101325.017974201401
101325.016431158889
101325.015626574444
101325.014356128799
101325.013665963997
101325.013390820866
101325.011793153462
101325.010108368821
101325.008852174535
101325.008221920769
101325.006694917494
101325.00572155173
101325.005338269431
101325.004619223197
101325.003195960584
101325.002449561696
101325.002309249787
101325.000357315759
101325.133322726411
101325.130131919548
101325.126923676435
101325.123469262806
101325.120004417899
101325.116725627697
101325.113605563965
101325.110545925709
101325.107519144818
101325.104557718209
101325.101687616552
101325.098904815954
101325.096194960424
101325.093552107312
101325.090978168344
101325.088474516699
101325.086038644848
101325.083666408711
101325.081354489987
101325.079100538947
101325.076902167115
101325.074756451984
101325.072660175691
101325.070610235649
101325.068603611406
101325.066637287731
101325.064708247315
101325.062813548779
101325.060950354382
101325.059116241464
101325.05730906628
101325.055526370314
101325.053766356083
101325.052027716287
101325.050303483295
101325.048600818453
101325.046910921097
101325.045232440549
101325.043558588266
101325.04187946234
101325.040181287535
101325.038429644061
101325.036569438555
101325.034511031277
101325.032170303646
101325.029744386076
101325.029406307396
101325.030633681352
101325.031354588064
101325.030874551594
101325.028166434204
101325.024869944609
101325.022731606674
101325.021097882141
101325.019274417922
101325.017716256683
101325.016304867589
101325.016145285743
101325.016416823069
101325.016219617421
101325.016792588111
101325.016309109749
101325.013025975117
101325.010041375266
101325.008315031955
101325.007282102772
101325.005639691371
101325.005114582498
101325.005587557753
101325.00547830158
101325.004551207152
101325.004879631349
101325.005114430125
101325.002169955274
101324.999222886036
101325.133497576069
101325.130209542389
101325.12711702993
101325.123824571492
101325.12042522071
101325.117143149342
101325.114025197574
101325.110990863948
101325.107990223085
101325.10504108126
101325.102173288047
101325.099390583637
101325.09668019625
101325.09403393713
101325.091452655004
101325.088938697503
101325.086490787624
101325.084105224538
101325.081778706226
101325.07950904184
101325.07729421492
101325.075131673628
101325.073018461015
101325.0709516231
101325.068928324356
101325.066945765793
101325.065001153664
101325.063091731252
101325.061214875692
101325.059368307891
101325.057550004814
101325.055757895898
101325.053990543471
101325.052246732637
101325.050524576422
101325.048826305079
101325.047151655337
101325.045504380018
101325.043888850923
101325.042312977588
101325.040787963109
101325.039319622956
101325.037915384673
101325.036581241802
101325.03531995049
101325.034036966666
101325.032308937123
101325.03037200158
101325.028371651802
101325.02690561951
101325.02615351096
101325.025079228726
101325.023921662665
101325.022667809724
101325.021132877562
101325.019101360289
101325.017278749321
101325.016960203546
101325.017024943329
101325.016737480895
101325.015475732667
101325.01352697266
101325.012368144744
101325.011353414171
101325.00997751423
101325.008126410656
101325.00661004406
101325.005975297056
101325.005642305943
101325.005097533241
101325.004634052588
101325.004008621632
101325.002549957848
101325.001336428642
101325.00011015503
101325.133980775776
101325.130604779391
101325.127526072421
101325.124286368111
101325.120893262603
101325.117580549457
101325.114442285092
101325.111408565979
101325.108409747176
101325.105450925432
101325.102566360452
101325.099767705033
101325.097043761154
101325.094383812422
101325.091787301484
101325.089257341097
101325.086793755065
101325.084393032943
101325.082051514328
101325.079766817813
101325.077537039833
101325.075359782859
101325.073232127135
101325.071151091339
101325.069113869846
101325.067117763218
101325.065160084152
101325.063238173301
101325.061349503943
101325.059491761334
101325.057662819832
101325.055860623354
101325.054083384748
101325.052329379178
101325.050596814879
101325.048884588163
101325.047190364538
101325.045510987693
101325.043839433827
101325.042164859769
101325.040466926628
101325.038715897768
101325.036878983432
101325.034940430793
101325.032971945911
101325.031273474335
101325.030434411936
101325.0302972629
101325.030247918869
101325.029569788254
101325.027683956243
101325.025417896366
101325.023387529494
101325.021521518909
101325.019873529425
101325.01855728087
101325.017619830876
101325.017064747648
101325.016601505238
101325.016018481401
101325.015289961389
101325.01434875399
101325.012648049276
101325.010666274611
101325.008787898405
101325.007356797432
101325.006713082941
101325.006490738728
101325.005984842763
101325.005320975339
101325.004968704801
101325.004458648924
101325.003420558467
101325.001873116184
101325.000200770592
101325.134079904499
101325.130690627819
101325.127651940391
101325.124479921869
101325.121135243957
101325.117843125336
101325.114719570192
101325.111706496449
101325.108727404164
101325.105779791178
101325.102899831734
101325.100104432262
101325.097383747459
101325.09472522854
101325.092127164826
101325.089593367898
101325.087124619837
101325.084717631355
101325.082368551957
101325.080075009173
101325.077835407108
101325.075647692793
101325.073509168447
101325.071417002939
101325.069368562006
101325.067361348367
101325.065392862874
101325.063460606689
101325.061562186922
101325.059695396325
101325.057858235799
101325.056048892031
101325.054265785671
101325.052507615488
101325.050773432871
101325.049062910839
101325.047376294431
101325.045715086482
101325.044082794586
101325.042486819802
101325.040938778198
101325.039454380647
101325.038050372648
101325.036734039153
101325.035477135083
101325.034167436606
101325.032617354649
101325.030868865055
101325.029119413215
101325.027300086411
101325.02592951688
101325.02482130994
101325.023640912797
101325.022566865198
101325.021408213084
101325.02002890702
101325.01869276962
101325.017723847966
101325.0169732676
101325.016086150499
101325.014946588664
101325.013522798661
101325.012184539315
101325.011016925157
101325.01000936568
101325.00887033371
101325.007616391245
101325.006772895489
101325.006204399833
101325.005528109439
101325.004682481725
101325.003642295313
101325.002470299893
101325.001277078831
101325.0001307192
101325.13439365376
101325.130982298229
101325.127939076017
101325.124781919207
101325.121445744429
101325.118143876243
101325.11500574564
101325.111984345131
101325.109001086239
101325.106047050358
101325.103157120684
101325.100351073517
101325.097620646979
101325.094952514148
101325.092343990706
101325.089799047157
101325.08731914284
101325.084901308393
101325.082541590382
101325.080237535672
101325.077987651704
101325.075790009185
101325.073641938376
101325.071540578138
101325.069483281201
101325.067467573579
101325.065490991168
101325.063551061903
101325.061645407142
101325.059771826855
101325.057928314825
101325.05611303341
101325.054324311714
101325.052560657787
101325.050820734614
101325.049103283731
101325.047406843543
101325.045729283956
101325.044066690083
101325.042411015413
101325.040746019295
101325.039046478065
101325.037288279302
101325.035474450051
101325.033682618407
101325.032110831613
101325.030976732218
101325.030190878882
101325.029355414023
101325.028494472979
101325.02723557537
101325.025577399545
101325.023893356934
101325.02224994087
101325.020626928148
101325.019265755313
101325.018232323288
101325.017395757764
101325.016597594877
101325.015744316654
101325.014781742022
101325.013739384813
101325.01251608794
101325.011128258222
101325.009673114007
101325.008371306758
101325.007459770408
101325.006801744938
101325.006121031591
101325.005378950358
101325.004603679146
101325.003765743721
101325.002745928563
101325.001549580033
101325.000307757771
101325.134432678155
101325.131025590395
101325.128002696176
101325.124873009758
101325.121560353669
101325.118270443243
101325.115143291943
101325.112134047231
101325.109164411842
101325.106221092268
101325.10333699685
101325.100534298806
101325.097806759717
101325.095140957725
101325.092533291201
101325.089987692816
101325.087506175652
101325.085086149324
101325.08272366802
101325.08041617542
101325.078162201477
101325.075959939844
101325.07380683739
101325.071700123008
101325.069637247841
101325.067615859763
101325.065633620397
101325.063688164868
101325.061777201699
101325.059898610649
101325.058050468724
101325.056231040086
101325.054438787294
101325.052672410675
101325.050930889149
101325.049213534614
101325.047520153705
101325.045851638264
101325.044211633838
101325.0426091751
101325.041057910523
101325.039573559145
101325.038167068109
101325.036820992798
101325.035472198753
101325.03408874548
101325.032613787975
101325.031030218146
101325.029441728184
101325.027811668333
101325.026217800478
101325.024884034545
101325.023700209946
101325.022506643611
101325.021400347367
101325.020278200391
101325.019114935625
101325.018018536546
101325.016990599019
101325.015925574146
101325.014770424546
101325.013538636747
101325.012278206312
101325.011114785433
101325.010056927349
101325.009089319079
101325.008105905043
101325.007181428213
101325.006339407031
101325.005467443101
101325.004517462919
101325.003466937444
101325.002330605945
101325.001217936122
101325.000163340024
101325.13456863047
101325.131159361816
101325.128126933269
101325.124999414897
101325.121687960782
101325.118398872728
101325.115261032595
101325.112245903802
101325.109271488094
101325.106322880383
101325.103431838957
101325.100621941951
101325.097888447868
101325.095217385664
101325.092604433303
101325.090053269756
101325.087566334871
101325.085141192831
101325.082773794857
101325.080461464662
101325.078202778823
101325.075996039435
101325.073838772296
101325.071728213909
101325.06966179442
101325.067637148677
101325.065651927973
101325.06370374441
101325.061790274573
101325.059909368676
101325.05805907918
101325.056237643934
101325.05444348426
101325.05267521966
101325.050931655482
101325.049211682941
101325.047514026068
101325.045836746649
101325.044177705844
101325.042538992522
101325.040908907366
101325.03926638166
101325.037593731555
101325.035867678758
101325.034038477577
101325.03243990241
101325.031207435182
101325.030187683544
101325.029170357288
101325.02806505542
101325.026874142815
101325.025541834621
101325.024102443203
101325.022648060898
101325.021133228598
101325.019712488778
101325.018550121604
101325.017565645016
101325.016614943408
101325.015638327459
101325.014616704648
101325.013538016137
101325.012425199777
101325.011258726488
101325.01006872789
101325.008885884352
101325.00786567184
101325.007024105682
101325.006215905873
101325.005371353007
101325.004502169832
101325.003596030816
101325.002485594669
101325.001367796474
101325.00025220956
101325.134558725185
101325.131151414942
101325.128131811158
101325.125019233848
101325.121707944971
101325.118418910206
101325.115287057532
101325.112278891786
101325.109306683167
101325.106363321291
101325.103475004711
101325.100667858889
101325.097937223356
101325.095268609817
101325.092657630943
101325.09010782589
101325.087621962055
101325.085197602166
101325.082830755942
101325.080518652205
101325.078259935937
101325.076053071069
101325.073895570036
101325.071784593543
101325.069717549384
101325.067692102573
101325.065705942921
101325.063756711941
101325.061842112191
101325.059960024577
101325.058108540281
101325.056285951374
101325.054490767419
101325.052721783199
101325.05097821157
101325.049259983585
101325.047568504888
101325.045906608968
101325.044274356813
101325.042668425624
101325.041107150522
101325.039637755093
101325.038305515554
101325.037139127104
101325.03618828865
101325.035052231149
101325.033588182618
101325.031958871463
101325.030287689879
101325.028590017857
101325.026936601193
101325.025313858496
101325.023774770627
101325.022360831412
101325.021159962911
101325.020125128416
101325.019081637947
101325.018003009056
101325.016934265746
101325.015854912723
101325.014728578113
101325.013564620851
101325.012388135292
101325.011247464761
101325.010180896643
101325.00922285972
101325.00828934228
101325.007337256218
101325.006372404328
101325.005378705391
101325.004290259632
101325.003164440335
101325.002151295048
101325.001105159565
101325.000080263417
101325.134583263105
101325.131180558703
101325.128153631536
101325.125024496316
101325.121730684186
101325.118447795889
101325.115312697235
101325.11229599957
101325.109329689003
101325.106384809318
101325.103497790507
101325.100690663428
101325.097959024308
101325.095289339268
101325.092676911008
101325.090125743358
101325.08763839661
101325.085212793507
101325.082844761127
101325.080531664236
101325.078272136088
101325.076064507477
101325.073906271296
101325.07179459148
101325.06972686862
101325.067700768006
101325.065713981792
101325.063764151768
101325.061848982572
101325.059966357061
101325.058114363026
101325.056291280591
101325.054495589706
101325.052725991569
101325.050981408698
101325.049260868516
101325.047562914639
101325.045885150845
101325.044224998928
101325.042573671089
101325.040926651898
101325.039286189829
101325.037666894787
101325.036158655101
101325.034958159333
101325.033778304671
101325.032381341647
101325.030865918874
101325.029385193804
101325.027945791997
101325.026474908489
101325.025093518037
101325.023855528299
101325.022747031049
101325.021816253487
101325.020781247513
101325.01957596709
101325.018391352118
101325.017294646284
101325.016187105546
101325.015006864021
101325.013779723668
101325.012547470455
101325.01134158636
101325.010196704388
101325.009152896877
101325.008206856583
101325.007293723917
101325.006384367836
101325.005457410545
101325.004538130408
101325.003687468532
101325.002923339242
101325.001932146159
101325.000679182966
101325.134583445557
101325.131170540524
101325.128140622444
101325.125009563519
101325.121701955009
101325.118410981639
101325.115276447919
101325.112259953487
101325.109286865219
101325.106338624188
101325.103448163922
101325.100638539094
101325.097904687631
101325.095233160784
101325.092619540752
101325.090067728888
101325.087580059291
101325.085154228305
101325.082786206112
101325.080473336246
101325.07821415129
101325.076006987874
101325.0738494127
101325.071738656363
101325.069672126221
101325.067647442556
101325.065662229448
101325.063714049029
101325.061800516924
101325.059919421008
101325.058068755898
101325.056246717228
101325.054451698656
101325.052682274589
101325.050937135486
101325.049214931612
101325.04751396332
101325.045832031843
101325.044167211279
101325.042519122158
101325.040881826819
101325.039237832432
101325.037578150062
101325.035890312167
101325.034100358913
101325.032516000312
101325.031289956038
101325.030252164477
101325.029179513687
101325.028033550712
101325.026842090752
101325.025476114388
101325.024006783104
101325.022554083844
101325.021008940937
101325.019635241901
101325.018557578282
101325.017611853924
101325.016658381399
101325.015673029615
101325.014652929283
101325.013583265012
101325.012473697891
101325.011312016359
101325.010146104294
101325.009007406785
101325.008018304899
101325.007182628629
101325.006366525282
101325.005488856172
101325.004566046337
101325.003560631521
101325.002358608152
101325.001167851209
101325.000087351378
101325.134429800048
101325.131030002711
101325.128000856828
101325.124869386549
101325.121559325198
101325.11827559158
101325.115143625313
101325.112132474198
101325.109163012967
101325.10622000556
101325.103336599117
101325.100534362529
101325.09780714447
101325.095141461323
101325.092533884832
101325.089988337888
101325.087506905984
101325.085086995328
101325.082724687774
101325.080417456018
101325.078163817365
101325.075961983588
101325.073809434631
101325.071703393929
101325.069641280425
101325.06762070593
101325.065639280612
101325.063694566445
101325.061784191465
101325.059905956266
101325.058057861374
101325.056238115489
101325.054445156085
101325.052677655985
101325.050934526444
101325.049214974191
101325.047518725347
101325.04584676282
101325.044203097699
101325.042597381776
101325.041043995065
101325.039561703976
101325.038164885409
101325.036834319297
101325.035493879492
101325.034083561623
101325.032566554015
101325.030973187124
101325.029394935307
101325.027743476909
101325.026210311087
101325.024921827775
101325.023722841448
101325.02255393326
101325.021425652289
101325.020239443009
101325.019063431202
101325.017993347312
101325.016981757304
101325.015933349205
101325.014809406406
101325.013628446293
101325.012383242254
101325.011204425391
101325.010132712341
101325.009183587506
101325.008259902257
101325.007384758574
101325.006520033668
101325.00558690363
101325.004548967539
101325.003467391507
101325.002361061546
101325.001289282911
101325.000247786782
101325.134391844869
101325.13098259698
101325.127938019665
101325.124780340804
101325.121445290497
101325.118145200438
101325.115005929634
101325.111983624316
101325.109000237979
101325.106046371395
101325.103156826561
101325.100351124391
101325.097620972476
101325.094953022213
101325.092344655539
101325.089799858761
101325.087320125356
101325.08490249727
101325.082543051263
101325.080239373696
101325.07798999529
101325.075793021388
101325.073645820943
101325.071545540603
101325.069489507732
101325.067475191448
101325.065500023265
101325.063561381452
101325.061656722581
101325.05978368553
101325.057940125727
101325.05612414355
101325.054334088345
101325.052568508851
101325.050826118837
101325.049105769038
101325.047406257247
101325.045725774427
101325.044060630287
101325.042402753636
101325.040736035793
101325.039036186354
101325.037281417361
101325.03548143465
101325.033726775306
101325.032220576046
101325.031146002671
101325.030346397631
101325.029450283837
101325.02845746628
101325.02704609168
101325.025366125396
101325.023740318386
101325.022078332855
101325.020502315616
101325.019230049569
101325.018263272286
101325.017452175758
101325.016643541239
101325.015766006836
101325.01480780229
101325.013779043016
101325.012610418111
101325.011272033458
101325.009900905919
101325.00868834462
101325.007838350735
101325.007186656265
101325.006506601218
101325.005715944193
101325.004821427836
101325.003744195739
101325.002511475846
101325.001243568797
101325.000077179793
101325.134078629373
101325.130690057209
101325.127651175702
101325.124479123027
101325.12113495532
101325.117843437329
101325.114719634366
101325.111706220996
101325.108727056198
101325.10577956184
101325.102899848629
101325.100104713492
101325.097384270121
101325.09472595634
101325.092128086195
101325.089594485835
101325.087125957318
101325.084719229897
101325.082370485863
101325.080077399631
101325.077838421319
101325.075651544365
101325.073514106218
101325.07142328356
101325.069376425658
101325.067370985082
101325.065404354609
101325.063473881179
101325.061576994965
101325.059711263355
101325.057874438091
101325.056064602875
101325.05428023421
101325.05252010969
101325.050783321494
101325.049069543093
101325.047379477488
101325.045715414424
101325.044081602115
101325.042485117461
101325.040938238555
101325.039458569561
101325.038062727559
101325.036750423591
101325.035473188647
101325.03410459189
101325.032496240354
101325.030794844482
101325.029028180303
101325.027299822978
101325.02598641369
101325.024828282505
101325.023677328398
101325.022612321613
101325.021406322165
101325.020005217229
101325.01869365848
101325.017748269805
101325.016988642834
101325.01612581838
101325.015048908448
101325.013687062848
101325.012327857927
101325.011116116613
101325.010053961087
101325.008919621483
101325.007921345459
101325.007372476102
101325.006706100088
101325.005754505051
101325.004749502361
101325.003686472148
101325.002541026799
101325.001454494617
101325.000372601629
101325.133979832521
101325.130604116115
101325.127525472722
101325.124285877188
101325.120893046012
101325.117580598671
101325.114442333492
101325.111408542434
101325.108409741748
101325.105451041629
101325.102566675996
101325.09976824875
101325.097044534472
101325.094384807468
101325.091788519247
101325.089258792388
101325.086795463358
101325.084395041355
101325.082053903883
101325.079769733551
101325.077540711878
101325.07536453029
101325.073238333352
101325.071159163577
101325.069124198882
101325.067130636962
101325.065175563286
101325.063256044654
101325.061369325893
101325.059512792301
101325.057683948398
101325.055880654967
101325.054101185786
101325.052344093114
101325.050608165257
101325.048892206294
101325.047194542247
101325.045512134384
101325.04383922831
101325.042163005623
101325.040462086487
101325.038706623411
101325.036865879039
101325.034933536532
101325.033012424639
101325.031435520184
101325.030725848948
101325.030506360301