/*--------------------------------*- C++ -*----------------------------------*\
  =========                 |
  \\      /  F ield         | OpenFOAM: The Open Source CFD Toolbox
   \\    /   O peration     | Website:  https://openfoam.org
    \\  /    A nd           | Version:  8
     \\/     M anipulation  |
\*---------------------------------------------------------------------------*/
FoamFile
{
    version     2.0;
    format      ascii;
    class       surfaceScalarField;
    location    "0.3";
    object      phi;
}
// * * * * * * * * * * * * * * * * * * * * * * * * * * * * * * * * * * * * * //

dimensions      [1 0 -1 0 0 0 0];

internalField   nonuniform List<scalar> 
3490
(
2.06166453964748236e-07
7.12712186921185688e-09
1.98542585495042434e-07
7.62386767557772583e-09
1.91651686916038657e-07
6.89089777387319096e-09
1.84551708162355116e-07
7.09997795501057655e-09
1.77268209784710367e-07
7.28349758561786651e-09
1.70115752930201352e-07
7.15245606920883359e-09
1.63238463747009772e-07
6.87728840964669636e-09
1.56626990517875369e-07
6.61147245562883717e-09
1.50266471359293077e-07
6.36051839325733834e-09
1.4417153887540836e-07
6.09493172021276778e-09
1.38358330295695185e-07
5.81320782405123806e-09
1.32833503440225185e-07
5.5248261083807961e-09
1.27598993740326864e-07
5.23450895904723504e-09
1.22658817270812723e-07
4.94017573369772647e-09
4.63625490153237225e-09
1.18022561641201287e-07
2.14979868253090488e-07
5.44076747060481349e-09
2.15683681868332962e-07
6.92005325925844452e-09
2.15657061054507278e-07
6.91751779265763431e-09
2.1541076609805311e-07
7.3462721093349168e-09
2.147750182591397e-07
7.91924462758176001e-09
2.13774977615844188e-07
8.15249592622847288e-09
2.12521698585097e-07
8.13056666488229128e-09
2.11076117409934464e-07
8.05705286727371834e-09
2.09460608598130628e-07
7.97602643680715818e-09
2.07704185137188528e-07
7.8513544163709705e-09
2.05845390506740915e-07
7.67200169601667506e-09
2.03915920199992723e-07
7.45429566907529701e-09
2.01939224467984656e-07
7.21120395702719264e-09
1.99938113486232262e-07
6.94128598423704203e-09
6.6301286836860521e-09
1.97944238973965207e-07
2.1517720690994153e-07
3.55707216428806015e-09
2.1685331561198421e-07
5.24394376071450599e-09
2.18025334723347518e-07
5.74549787136657174e-09
2.19114259946290305e-07
6.2573460792140403e-09
2.20126048169760025e-07
6.90745560228581177e-09
2.20944378708984964e-07
7.33416460023707581e-09
2.21595713053591734e-07
7.47923155439699322e-09
2.22134238562878287e-07
7.51852659460329237e-09
2.22567232615678396e-07
7.54303162122558547e-09
2.22886677431598831e-07
7.53190882962154446e-09
2.23098599793920335e-07
7.46007857443231433e-09
2.23216060570071078e-07
7.33683415014587399e-09
2.23248290639648241e-07
7.17897315400049426e-09
2.23199688881648901e-07
6.98988700653311427e-09
6.76290894235077864e-09
2.2306690788901079e-07
2.14361139238557589e-07
2.48941867929321365e-09
2.15506509132150869e-07
4.09857306220134539e-09
2.16536282369952457e-07
4.71572383172166129e-09
2.17626706470237394e-07
5.16692116156148908e-09
2.18819514552554565e-07
5.71464670597697145e-09
2.20016006192237964e-07
6.13767217020773267e-09
2.21162646249084139e-07
6.33259073795541791e-09
2.22270737347210019e-07
6.41043475450287887e-09
2.23345605765718542e-07
6.46816243738546596e-09
2.2437483415618626e-07
6.50267965828345698e-09
2.25349289014758601e-07
6.48562294618342825e-09
2.26267973699248627e-07
6.41814872833215711e-09
2.27129794091606921e-07
6.31715204113859285e-09
2.27929039223467552e-07
6.19064114521492517e-09
6.03791357394574527e-09
2.28654033849842944e-07
2.13987727734346105e-07
1.79517420326305092e-09
2.15053127661549723e-07
3.03317234010762764e-09
2.16085911083369286e-07
3.68293959466387439e-09
2.17128281926991664e-07
4.12454948121090841e-09
2.18257911845877584e-07
4.5850159508480416e-09
2.19419885773018568e-07
4.9756974422285543e-09
2.20558392626439126e-07
5.19408315572799588e-09
2.21679254724334088e-07
5.289571940772288e-09
2.22797911705808232e-07
5.34950469558171488e-09
2.23909327377960228e-07
5.39126317811859998e-09
2.25001457888652528e-07
5.3934916472506248e-09
2.26068254912917557e-07
5.35135098182670922e-09
2.27106613517387175e-07
5.27879273540003117e-09
2.28110205414990106e-07
5.18704851304957087e-09
5.08079339697301572e-09
2.29067324828348889e-07
2.13845870878533467e-07
1.24277429150304541e-09
2.14602201546459328e-07
2.27684087301262665e-09
2.15418790512067929e-07
2.8663498319347159e-09
2.1630406329220341e-07
3.23927583011904643e-09
2.17292980146989326e-07
3.59609822116555368e-09
2.18361373399735265e-07
3.90730336335206301e-09
2.19460948484689225e-07
4.09450739226046698e-09
2.20570355737019103e-07
4.18016404438591383e-09
2.21689738958829541e-07
4.23012071185323026e-09
2.22814001580273423e-07
4.26699968661125559e-09
2.23931520488853447e-07
4.27597190627747931e-09
2.2503374614930579e-07
4.24912463289447542e-09
2.26116200858439777e-07
4.19633737670675857e-09
2.27174091622143297e-07
4.12915702176792092e-09
4.05296838942796074e-09
2.28201915827119815e-07
2.136382098451922e-07
8.98033726298094533e-10
2.14310291049423884e-07
1.6047588949157474e-09
2.15121242931267769e-07
2.05539718987193409e-09
2.16006988283499326e-07
2.35352953741270091e-09
2.1698021436267506e-07
2.62287119853406807e-09
2.18024359478032969e-07
2.86315733852505053e-09
2.19094764385085459e-07
3.02410193262704295e-09
2.20169006900168422e-07
3.10592103442850021e-09
2.21248447313265134e-07
3.15067954248533585e-09
2.22333544348436742e-07
3.1819016387030902e-09
2.23416464756321551e-07
3.19305055690227588e-09
2.24488554523004321e-07
3.17703427170280499e-09
2.25544786615484199e-07
3.14010475293277445e-09
2.26581705187397859e-07
3.09223771582678886e-09
3.03939389049601714e-09
2.27595278776098832e-07
2.13652353944636312e-07
5.39143168042781089e-10
2.14224735665565501e-07
1.03237641825318488e-09
2.14922045264175946e-07
1.35808699345652644e-09
2.15707472664009223e-07
1.56810102568383756e-09
2.165846240065736e-07
1.7457188229413351e-09
2.17544633165642586e-07
1.90314701432202708e-09
2.18559709675510783e-07
2.00902514893179979e-09
2.19603933513527284e-07
2.06169704348551501e-09
2.20665778073093531e-07
2.08883422427041782e-09
2.21739532332681741e-07
2.108146044653363e-09
2.22816668801775966e-07
2.11591287671040816e-09
2.23887392715324874e-07
2.10631000907553817e-09
2.24944941793210017e-07
2.08255541010408405e-09
2.25985660032989161e-07
2.05151873405217821e-09
2.01739596132409559e-09
2.27007656812227715e-07
2.13540444780571845e-07
2.92161416312046848e-10
2.14053715621880543e-07
5.19104823110057099e-10
2.14746974294995869e-07
6.64827421942565585e-10
2.15554942932469086e-07
7.60131824607785802e-10
2.16454577460307048e-07
8.46083329403934566e-10
2.1743196516910268e-07
9.2575867958227775e-10
2.18457176104837915e-07
9.83813232047092366e-10
2.19501749154374129e-07
1.01712313284416291e-09
2.20554414660557794e-07
1.03616795181826884e-09
2.21613338462321855e-07
1.04922157232454253e-09
2.22673723311244295e-07
1.0555274540130903e-09
2.2372749843010714e-07
1.05253396350723085e-09
2.24768176795612404e-07
1.04187615066906001e-09
2.2579247076601975e-07
1.02722397045709587e-09
1.01110701166830455e-09
2.26798759045485634e-07
2.1358671222571372e-07
-1.09007512204738138e-12
2.14105918760887333e-07
-1.02362247152467714e-13
2.14771046304038578e-07
-3.0083993648837015e-13
2.15531310757135156e-07
-1.33200282831179862e-13
2.16377132179157588e-07
2.60617388844004676e-13
2.17302960527379903e-07
-7.0686589226670032e-14
2.18287232661234016e-07
-4.59521644497092106e-13
2.19304881184272159e-07
-5.25547811885410527e-13
2.2034086487311747e-07
1.83495586176795821e-13
2.21389887959598424e-07
1.97135051931442725e-13
2.22445468941520248e-07
-5.45266263943914362e-14
2.23498338390297234e-07
-3.35994789854887483e-13
2.24540541360595744e-07
-3.27185423798411186e-13
2.25567608116469683e-07
1.56376885965681651e-13
1.55148395118779473e-13
2.26578558679418168e-07
2.13584242847596905e-07
-2.91871679303283435e-10
2.14103310134166718e-07
-5.19170657365986566e-10
2.1476795510810163e-07
-6.64946783879394656e-10
2.15528116791171912e-07
-7.6029590128517944e-10
2.16374687802552924e-07
-8.4631066653092035e-10
2.17300592289058567e-07
-9.25975743236124621e-10
2.18283971164190532e-07
-9.83839425212198099e-10
2.19300632665462331e-07
-1.01718850007660211e-09
2.20337202983402037e-07
-1.03638762896971384e-09
2.21386871260596626e-07
-1.04947136056756063e-09
2.22442508532236849e-07
-1.05569237294705563e-09
2.23494786995462682e-07
-1.05261553258873284e-09
2.24536421542087704e-07
-1.04196292667337944e-09
2.25564005454351979e-07
-1.02742823014104733e-09
-1.01126834423659949e-09
2.26575428719149256e-07
2.13540166297341002e-07
-5.38574726028670942e-10
2.14053414251942152e-07
-1.03241947079069632e-09
2.14746457387105359e-07
-1.35799060381501651e-09
2.15554267355303178e-07
-1.56810694133889904e-09
2.16453865155630658e-07
-1.74590914019490186e-09
2.17431119199388292e-07
-1.90323077660088244e-09
2.18456271783506493e-07
-2.00899259659271248e-09
2.19500683185454015e-07
-2.06160062631215101e-09
2.20553339954972541e-07
-2.0890452263213512e-09
2.21612170966565225e-07
-2.10830328354972067e-09
2.22672500974480685e-07
-2.11602337587287918e-09
2.23726216465064251e-07
-2.10633164510100609e-09
2.2476678526354978e-07
-2.08253237823789447e-09
2.25791027354084209e-07
-2.05167106961715829e-09
-2.01745583429508654e-09
2.26797213989442738e-07
2.136527061435493e-07
-8.97817436122184607e-10
2.14224955358993074e-07
-1.60466955271603644e-09
2.1492234184026607e-07
-2.05537809246506519e-09
2.15707786112319037e-07
-2.35355172524921353e-09
2.16584808365336873e-07
-2.62293198534434765e-09
2.17544763888338212e-07
-2.8631867441771718e-09
2.18559854469572427e-07
-3.02408449569710649e-09
2.19604152029672022e-07
-3.10589962268463925e-09
2.20665870136963722e-07
-3.15076416142457036e-09
2.21739555570647155e-07
-3.18198895994871109e-09
2.22816642332757133e-07
-3.19311049426141269e-09
2.23887362535146431e-07
-3.17705305201827607e-09
2.24944941926648199e-07
-3.14011304965152656e-09
2.25985574577829187e-07
-3.09230451330769364e-09
-3.03944833207776695e-09
2.27007566706955037e-07
2.13638343106262001e-07
-1.24269125145807908e-09
2.14310449019442694e-07
-2.27677630937768677e-09
2.15121411323466603e-07
-2.86634125530397663e-09
2.16007162278923438e-07
-3.23930336056612928e-09
2.16980360236186439e-07
-3.5961306177864427e-09
2.18024490964165452e-07
-3.90731817284160283e-09
2.19094912676257224e-07
-4.09450724715910331e-09
2.20169184698316061e-07
-4.18017274073136648e-09
2.21248590048411367e-07
-4.23017033619227955e-09
2.22333657151050576e-07
-4.26705662553495146e-09
2.2341656277182523e-07
-4.27601673624205338e-09
2.2448866053915908e-07
-4.2491517747354847e-09
2.25544909823812849e-07
-4.19636334426443469e-09
2.26581811553856858e-07
-4.12920704333945314e-09
-4.05302704149758368e-09
2.27595389654092132e-07
2.13845916362943832e-07
-1.79513666856076686e-09
2.14602276209080184e-07
-3.03313698246704087e-09
2.15418869146834517e-07
-3.68293501087377529e-09
2.16304135751564012e-07
-4.12457071170961029e-09
2.17293043340352009e-07
-4.58503894747624237e-09
2.18361434181547554e-07
-4.97570979542991429e-09
2.19461017256855956e-07
-5.19409124238275284e-09
2.20570433278613599e-07
-5.28958970568838587e-09
2.21689803506946223e-07
-5.34954138628779901e-09
2.22814051504032248e-07
-5.3913053258121427e-09
2.23931563466066326e-07
-5.39352942687629658e-09
2.2503379350984654e-07
-5.35138268016482745e-09
2.26116256366338031e-07
-5.27882708883168527e-09
2.27174145551838593e-07
-5.18709702464133975e-09
-5.08085596714396724e-09
2.28201973769246261e-07
2.13987748285883211e-07
-2.48940170312197963e-09
2.15053165911965146e-07
-4.09855542619828873e-09
2.16085951928346655e-07
-4.71572183475300049e-09
2.17128315933748992e-07
-5.16693549597772442e-09
2.18257939707917644e-07
-5.71466349996058864e-09
2.19419912501611707e-07
-6.13768339441113526e-09
2.2055842161527989e-07
-6.33260122141289675e-09
2.21679284023195793e-07
-6.41045298732894427e-09
2.22797933022343938e-07
-6.46819120334950095e-09
2.23909339403340872e-07
-6.50271247049814576e-09
2.25001464272598635e-07
-6.48565506702427139e-09
2.26068261035807686e-07
-6.41818026758542425e-09
2.27106621259634655e-07
-6.31718814827740217e-09
2.28110211743882327e-07
-6.19068830051443658e-09
-6.03797535322246202e-09
2.29067330381710185e-07
2.14361147799307485e-07
-3.55706377361721384e-09
2.1550652708708939e-07
-5.24393552582158826e-09
2.16536302301477036e-07
-5.74549785434909832e-09
2.17626721555927299e-07
-6.25735554384259679e-09
2.18819524897391905e-07
-6.90746763630207477e-09
2.20016015121071347e-07
-7.33417443055234758e-09
2.21162654874957237e-07
-7.47924181365602365e-09
2.22270743320560214e-07
-7.51854227374080971e-09
2.23345605138876706e-07
-7.54305383577356705e-09
2.2437482608571849e-07
-7.53193420599262385e-09
2.25349275022373297e-07
-7.46010479296855844e-09
2.26267955928917575e-07
-7.33686198128950009e-09
2.27129772978308433e-07
-7.17900600608940958e-09
2.27929013040263522e-07
-6.98992914947321893e-09
-6.76296415734933768e-09
2.28654001082610628e-07
2.15177211489768154e-07
-5.44076366066978004e-09
2.16853324836710898e-07
-6.92004967888593219e-09
2.18025344686508477e-07
-6.91751850824405158e-09
2.19114266278693955e-07
-7.34627793666487344e-09
2.20126050225900608e-07
-7.91925238618242336e-09
2.20944378127510584e-07
-8.15250314418839434e-09
2.21595710081212409e-07
-8.13057459174429432e-09
2.2213423117068819e-07
-8.05706418836112333e-09
2.2256721822964435e-07
-7.97604170710647058e-09
2.22886655119157308e-07
-7.85137189367204819e-09
2.23098569788500591e-07
-7.67202025580767129e-09
2.23216023068777602e-07
-7.45431605963213519e-09
2.23248244611245497e-07
-7.2112283425227778e-09
2.2319963177277317e-07
-6.94131709077720095e-09
-6.63016939550303248e-09
2.23066836247616671e-07
2.1497987060536668e-07
-7.12712043126021767e-09
2.15683686492008842e-07
-7.62386637065946997e-09
2.15657065693459343e-07
-6.89089851292350448e-09
2.15410767617495592e-07
-7.09998066354289414e-09
2.14775015674866212e-07
-7.28350124799639393e-09
2.13774971352043087e-07
-7.1524596325980392e-09
2.12521688239568852e-07
-6.87729229679206025e-09
2.11076101096660885e-07
-6.61147786324106609e-09
2.09460584145459167e-07
-6.3605255657148575e-09
2.07704151334256205e-07
-6.0949398831701932e-09
2.05845346733924071e-07
-5.81321645157038918e-09
2.03915865544799201e-07
-5.52483566262470304e-09
2.01939156824742537e-07
-5.23452041003659302e-09
1.99938029298271879e-07
-4.94019034083839588e-09
-4.63627416308832894e-09
1.97944133301921448e-07
2.06166455397548406e-07
1.98542588219051582e-07
1.91651688899743736e-07
1.84551707430123694e-07
1.77268205374045063e-07
1.70115744929509826e-07
1.63238451817229872e-07
1.56626973139689972e-07
1.50266446766557677e-07
1.44171506083806165e-07
1.38358288840705227e-07
1.32833452391465416e-07
1.27598931202871661e-07
1.22658740094861969e-07
1.18022465176136401e-07
1.14477389661841206e-07
3.54517140201935064e-09
1.11075061322728529e-07
3.40232776757750394e-09
1.07823775515080131e-07
3.25128524352367623e-09
1.04731361165952335e-07
3.09241379367663647e-09
1.01794744905658417e-07
2.93661570819433158e-09
9.90072785198478469e-08
2.78746583813859895e-09
9.63642938506917252e-08
2.64298411430553942e-09
9.38621747250053901e-08
2.50211853344562033e-09
9.14964195026078165e-08
2.3657544877295873e-09
8.92615354239797108e-08
2.23488287598269814e-09
8.71518542288950086e-08
2.10967858984678157e-09
8.51619264032307374e-08
1.98992134475277121e-09
8.32863163747765074e-08
1.87559379042933596e-09
8.15194210881436601e-08
1.76685714525910237e-09
7.98555583403892246e-08
1.66378187778897054e-09
7.82891157023537649e-08
1.56627836874034338e-09
7.68145872321278049e-08
1.47420565899601173e-09
7.54265195636594445e-08
1.38745189250863815e-09
7.41194607001297646e-08
1.30591765910773216e-09
7.28879281949723078e-08
1.22947749626822182e-09
7.17263587011373767e-08
1.1579711231258228e-09
7.06290211056696631e-08
1.09121694773488743e-09
6.95902215444726568e-08
1.02900488603440798e-09
6.86044534261843087e-08
9.71195211304356788e-10
6.76659528899466967e-08
9.1750290121700238e-10
6.6769510949638989e-08
8.67702635077647304e-10
6.59103243679575014e-08
8.21516769331538345e-10
6.50840045456621222e-08
7.78615956035648964e-10
6.42867656951979435e-08
7.38735348580039056e-10
6.35158347498481897e-08
7.01524765533978175e-10
6.27689242170985281e-08
6.667167813660931e-10
6.20442230611366919e-08
6.34040657432585398e-10
6.13406100825066815e-08
6.03194845492112531e-10
6.06577809829274414e-08
5.73874171639711102e-10
5.99962308509488903e-08
5.4578854206449665e-10
5.93571492291363928e-08
5.18677116426277837e-10
5.8742251348202792e-08
4.92389228007661746e-10
5.81541571576427969e-08
4.66115407953886724e-10
5.7594962728417638e-08
4.39715588922936559e-10
5.70660210977733039e-08
4.13458903350315829e-10
5.65672017224258915e-08
3.88515996379356411e-10
5.60891421736976641e-08
3.72982529320399357e-10
5.56026416732980125e-08
3.86573261482868212e-10
5.5057257508245868e-08
4.51283471948777725e-10
5.44297437903664753e-08
5.39643802800660861e-10
5.4017179350020663e-08
3.29632895802388252e-10
5.40750599024755104e-08
-1.49652375380586138e-10
5.44306260513727594e-08
-4.57777468033154285e-10
5.48196704975893042e-08
-4.89822053077522059e-10
5.48239532916028083e-08
-8.82822291882728653e-11
5.42681108382255337e-08
4.76432204327481459e-10
5.36623723888917723e-08
5.24727311035672331e-10
5.31395856310403677e-08
4.40987141737829614e-10
5.27590903818634879e-08
3.01027799201338833e-10
5.2426906646423689e-08
2.55703627004661124e-10
5.18850242810134294e-08
4.67379722094469791e-10
5.14715990545961576e-08
3.36471241551338899e-10
5.1671052279544434e-08
-2.83435648130829497e-10
5.21436810325086624e-08
-5.6731465801080739e-10
5.28605618120176988e-08
-8.20094764150948564e-10
5.33287130856604801e-08
-5.59262566657768631e-10
5.30788071195362042e-08
1.78449357557962842e-10
5.25179988286823095e-08
4.86116991749907932e-10
5.19972738003845168e-08
4.51304016910108648e-10
5.139348798745963e-08
5.40780436534141423e-10
5.06042554829987333e-08
7.2777444843987629e-10
5.02874221405830718e-08
2.51785538879188469e-10
5.05835204892568884e-08
-3.7128053975352976e-10
5.09584438070281612e-08
-4.51496496611421909e-10
5.132779520819093e-08
-4.40210896172939398e-10
5.19191523279486169e-08
-6.50083790527749731e-10
5.24465735737641896e-08
-6.01378811376274393e-10
5.23422898303157488e-08
4.27746099751168207e-11
5.17801488677078025e-08
5.08728727607755399e-10
5.26527829381971997e-10
1.96341593146091695e-07
5.14781665422479714e-09
1.94711576545613574e-07
5.03234379850809993e-09
1.9306907363033899e-07
4.89378759487517023e-09
1.91436372719767406e-07
4.7251141454345099e-09
1.89821563894938186e-07
4.55142398254176589e-09
1.8822408215618799e-07
4.38494703313211365e-09
1.86645012918852982e-07
4.22205281122899251e-09
1.85088822418884196e-07
4.05830849772272355e-09
1.83559599717436759e-07
3.89497664857511635e-09
1.8205929160655754e-07
3.73519041920738976e-09
1.80588716362523066e-07
3.58025317375918286e-09
1.79148678521504641e-07
3.42995824729053544e-09
1.77740075939319208e-07
3.28419471047327108e-09
1.76363522505838378e-07
3.14340723191299234e-09
1.75019198649269618e-07
3.00809910933811815e-09
1.73706984677425588e-07
2.8784793405141086e-09
1.72426603975610142e-07
2.75456131597472297e-09
1.71177647936578427e-07
2.63636074206677546e-09
1.69959549037364899e-07
2.5239297716391076e-09
1.68771568782370974e-07
2.41730212029645104e-09
1.67612819366339009e-07
2.31644872900326817e-09
1.66482278285413572e-07
2.2212966277242349e-09
1.65378777194223596e-07
2.13174769879483083e-09
1.64301059470672239e-07
2.04770333535421853e-09
1.63247653340290767e-07
1.96900049143497725e-09
1.62216893366748311e-07
1.89543393372724551e-09
1.61207491523385076e-07
1.82677974841987296e-09
1.60218016494466988e-07
1.76270501929739977e-09
1.59246259519307332e-07
1.70283825744168235e-09
1.58290988702528631e-07
1.64694846587948249e-09
1.57350983996940079e-07
1.59456724705420755e-09
1.56424764121024852e-07
1.54532535258801947e-09
1.55510951404317178e-07
1.49880614489626804e-09
1.54608565802852968e-07
1.45459659592818035e-09
1.53717108932447426e-07
1.4124319057813651e-09
1.5283536168733377e-07
1.37189888325530578e-09
1.51961602287967518e-07
1.33283177864369667e-09
1.51097335241923427e-07
1.29579012510753407e-09
1.5023821559008329e-07
1.26077332474711786e-09
1.49375559191669569e-07
1.22947349182518781e-09
1.48513476850174388e-07
1.20567889212770823e-09
1.47649146573702007e-07
1.19608429873879565e-09
1.46772280858294352e-07
1.20936950175185871e-09
1.45920642781537923e-07
1.23662285479074338e-09
1.45252328944775131e-07
1.14720571080977459e-09
1.4491568689719421e-07
6.06158720952085494e-10
1.4448499426140275e-07
2.26954903488723505e-10
1.43826257793093902e-07
1.62976594225710681e-10
1.42872562366828752e-07
4.16755623776767551e-10
1.41709069662059825e-07
1.01097384762377693e-09
1.40952506327840198e-07
1.16072404255183617e-09
1.40332924751840876e-07
1.09345528769450699e-09
1.39691657080786592e-07
1.02008993795562961e-09
1.38933879414441604e-07
9.69265984101826101e-10
1.38143525373756829e-07
9.55120461532617494e-10
1.37911564713071541e-07
6.44453815657403983e-10
1.38358760955973009e-07
-1.39283193492015543e-10
1.38512690395070491e-07
-4.65835888968613422e-10
1.38411788189937961e-07
-5.11185943972528045e-10
1.37897551004540911e-07
-3.69109018935448752e-10
1.36918291010727122e-07
3.46271484812657583e-10
1.36079912087426383e-07
9.13330902366125602e-10
1.35484165476511209e-07
9.42478701446991632e-10
1.34840023800527145e-07
9.41355048797974653e-10
1.34411661564500251e-07
8.42684150926029119e-10
1.34705142419165715e-07
3.76078716955387472e-10
1.35253350589640677e-07
-3.42253614425097125e-10
1.35418879053045982e-07
-5.98136608291507516e-10
1.35391692112244353e-07
-5.07713626384997009e-10
1.35363550571606661e-07
-5.30902319690073821e-10
1.3514170018835705e-07
-5.74528343074239937e-10
1.34459491169646043e-07
1.61114462710988145e-11
1.33766580203115663e-07
6.25871028794432614e-10
1.33445509078826774e-07
6.64421430230360834e-10
6.69226680324404282e-10
2.22924716839676593e-07
5.29000712111776586e-09
2.22745649076120203e-07
5.21141098744780532e-09
2.22524450788476242e-07
5.11498531653441988e-09
2.22264638783740471e-07
4.98492559173972055e-09
2.21973051357978542e-07
4.8430108569029596e-09
2.21652971653668064e-07
4.70502619260783745e-09
2.21306074001180195e-07
4.56894992414298174e-09
2.20935006369460083e-07
4.42937559534745492e-09
2.20542995686442144e-07
4.28698680448192234e-09
2.20132676280873894e-07
4.14550930393385207e-09
2.19706083850104347e-07
4.00684508409445519e-09
2.19265107042124606e-07
3.87093452264516629e-09
2.18811685031293748e-07
3.73761613338140153e-09
2.18347661217086026e-07
3.60743032223065465e-09
2.17874638779200664e-07
3.48112054402919386e-09
2.17393997177448648e-07
3.3591193879679587e-09
2.16906973239678884e-07
3.24158265021724028e-09
2.1641469471187555e-07
3.12863472998659219e-09
2.1591816252615362e-07
3.02045395257486256e-09
2.15418244993037064e-07
2.91720560598140292e-09
2.14915689356371749e-07
2.81898005938123207e-09
2.14411141513546132e-07
2.72580322913458002e-09
2.13905152284489784e-07
2.6376685418808116e-09
2.13398198893015209e-07
2.55454594796305036e-09
2.12890669850056128e-07
2.47635357810345628e-09
2.12382875774329568e-07
2.40295205798786448e-09
2.11875082802889762e-07
2.33413874082063155e-09
2.11367596781839846e-07
2.26968110402495364e-09
2.10860376925193267e-07
2.20926022299710824e-09
2.10353566333639494e-07
2.15255822009908196e-09
2.09847376839528474e-07
2.09927613951539291e-09
2.09341852513632668e-07
2.048956874038789e-09
2.08837128483322234e-07
2.00118775154340601e-09
2.08332671908596851e-07
1.95554319420915445e-09
2.07829447322595523e-07
1.9115749882900133e-09
2.07329055364712221e-07
1.86888292498807533e-09
2.06829774889298072e-07
1.82683830300222758e-09
2.06332640393764193e-07
1.78509689704795929e-09
2.05843233865267393e-07
1.74385256045926676e-09
2.05361378007074396e-07
1.70331575970269578e-09
2.04890592751008005e-07
1.66479933963797948e-09
2.04447766886075293e-07
1.62868275823092174e-09
2.04057183786608146e-07
1.58874517752402855e-09
2.03750604346575867e-07
1.52755950447799135e-09
2.03457479535004549e-07
1.42418055245499007e-09
2.02776309270654527e-07
1.27306616393433061e-09
2.01903479617613222e-07
1.08499793746119452e-09
2.01004934777287346e-07
1.04799430583538321e-09
2.00370917626144415e-07
1.03438170884954528e-09
2.00201003135098994e-07
1.15921015974167735e-09
2.00020620135604588e-07
1.31013894248972516e-09
1.99801389434389847e-07
1.29090538103698209e-09
1.99514916506991077e-07
1.28687318813236914e-09
1.99180974306583946e-07
1.2750300044362361e-09
1.9888243203185225e-07
1.22336131170206685e-09
1.9864559230270159e-07
8.67125583818506872e-10
1.98172050570966333e-07
3.15537627590733035e-10
1.97571829704485593e-07
1.12922781765201862e-10
1.96947103403929101e-07
1.01244641393618536e-10
1.96162512871307996e-07
3.9750277477559296e-10
1.95815960065616703e-07
6.65165654650106809e-10
1.9588048161507835e-07
8.19987795468623644e-10
1.95866982555158553e-07
9.22102177124277279e-10
1.95798552911851278e-07
9.62322501536031811e-10
1.95760858955926646e-07
8.35619448258335947e-10
1.95706908304815001e-07
3.87614599983878598e-10
1.95367686291184601e-07
-4.54225131526361356e-11
1.9494980107702031e-07
-2.22097713249525706e-10
1.94675098704117418e-07
-2.78304538831898677e-10
1.94405436429306095e-07
-3.02137528888710311e-10
1.93817050976938649e-07
-3.0196495359495036e-11
1.93485786253614298e-07
2.89128433337993218e-10
1.93579810652263984e-07
4.5546921729553156e-10
1.93507877383641993e-07
6.45522240861573243e-10
6.47285931502998247e-10
2.29196979379044134e-07
4.74706100648838555e-09
2.29722107634453262e-07
4.6862821559390918e-09
2.30217905379913603e-07
4.61918700272968519e-09
2.30676861818989136e-07
4.52596858974734219e-09
2.31101004576494502e-07
4.41886754705038944e-09
2.31493457940521202e-07
4.31257228415835269e-09
2.31854576022761553e-07
4.20783129976287248e-09
2.32184170400367001e-07
4.09978068178964931e-09
2.32483271630122006e-07
3.98788504582791403e-09
2.32753572574641846e-07
3.87520783999951961e-09
2.32996543373653485e-07
3.76387377684351728e-09
2.33213419104811112e-07
3.65405829243719185e-09
2.33405460937837969e-07
3.54557380744610592e-09
2.33574018676745718e-07
3.4388720905058e-09
2.33720425190870256e-07
3.33471352559109566e-09
2.33845926899728863e-07
3.23361714232235499e-09
2.3395170884052599e-07
3.13580009999236626e-09
2.34038926991995111e-07
3.0414158232985924e-09
2.34108704791092093e-07
2.95067512642296746e-09
2.34162118774810108e-07
2.86379011284041701e-09
2.3420019389586014e-07
2.78090259417706558e-09
2.34223909244034408e-07
2.70208414107656531e-09
2.34234203106592347e-07
2.62736865645608366e-09
2.34231976293335472e-07
2.55676308286107985e-09
2.3421808359885327e-07
2.49023078951029542e-09
2.34193331169636739e-07
2.42767963686782114e-09
2.34158465765969635e-07
2.36896313715358051e-09
2.34114205585385691e-07
2.31389276850300109e-09
2.34061155681443803e-07
2.26223153266108506e-09
2.33999869130509466e-07
2.21371677591183085e-09
2.33930911770880768e-07
2.16807388464144882e-09
2.33854713494392501e-07
2.12495310113238621e-09
2.3377162281383663e-07
2.0840050389664262e-09
2.33681871130565493e-07
2.04491046047395847e-09
2.3358559546848381e-07
2.0073021581389681e-09
2.33483084923400234e-07
1.97095482838442932e-09
2.33373541347946403e-07
1.93564166624920653e-09
2.33255939974743914e-07
1.90144184008133163e-09
2.33130005524451741e-07
1.86876342840006793e-09
2.32994050478403598e-07
1.83806478366597323e-09
2.32847651973534776e-07
1.80955364469636022e-09
2.3269332355115903e-07
1.78080928602523639e-09
2.32538518545476553e-07
1.74191542105993806e-09
2.32398791115913281e-07
1.66488268186667149e-09
2.32313056169896216e-07
1.50630738857597745e-09
2.32319516026871164e-07
1.26348430454267739e-09
2.32290005833190671e-07
1.11160785192448076e-09
2.32252454507587604e-07
1.08124378001545129e-09
2.32024141167099903e-07
1.25837604892793622e-09
2.3171729560645425e-07
1.46197540510804577e-09
2.31489922659971013e-07
1.53219642118032647e-09
2.31240657735847934e-07
1.53295531710692824e-09
2.31087240090898368e-07
1.43555851627085202e-09
2.31046557084320117e-07
1.30876813948506333e-09
2.31146418831213818e-07
1.11402645169671249e-09
2.31179546502322332e-07
8.29763026277339715e-10
2.30960449139487492e-07
5.29926358008692198e-10
2.30681974531269056e-07
3.87046439898867487e-10
2.30382000733645548e-07
3.97133997059577738e-10
2.30239506876823106e-07
5.3449955121042293e-10
2.30144842152556784e-07
7.51861203454752499e-10
2.30001868734332508e-07
9.56562361432519058e-10
2.29907092948604676e-07
1.00824089875437839e-09
2.29925250000383729e-07
9.32085821742890463e-10
2.30009504680171461e-07
7.40909945081206535e-10
2.30039277565914026e-07
3.50441255356923097e-10
2.29948991711951161e-07
3.69433045271996583e-11
2.29796155931533465e-07
-7.91291388976640351e-11
2.29636593609578391e-07
-1.31924661734567213e-10
2.29362617989846329e-07
-4.0815718671531398e-11
2.29176469739165413e-07
1.4128269531213548e-10
2.29096392155969704e-07
3.51705480888049468e-10
2.28947251419194676e-07
5.82239768604430146e-10
2.2890331068477408e-07
6.5973966238562753e-10
6.11644674497743388e-10
2.29815091185640065e-07
3.99929405014362771e-09
2.3055234157854786e-07
3.94903118218060262e-09
2.31276886508821582e-07
3.89464150063489852e-09
2.31978683113205851e-07
3.82417142053179416e-09
2.32654887513075095e-07
3.7426625932507728e-09
2.33307300696457689e-07
3.66015855812762674e-09
2.3393641817841303e-07
3.57871327698381915e-09
2.34541201218020375e-07
3.49499709909778163e-09
2.35121265933447738e-07
3.4078197963958635e-09
2.35677185395201866e-07
3.31928785539966522e-09
2.36209613158977332e-07
3.23144550358617977e-09
2.3671896021313954e-07
3.14471074051938213e-09
2.37205640058901617e-07
3.0588934764299238e-09
2.37670257280424275e-07
2.97425439515076026e-09
2.38113553428660905e-07
2.89141691498668109e-09
2.38536280621968533e-07
2.81088949685771771e-09
2.38939199091705081e-07
2.73288118482542186e-09
2.39323097208086521e-07
2.65751726413561886e-09
2.39688795888419633e-07
2.58497599592832655e-09