/*--------------------------------*- C++ -*----------------------------------*\
  =========                 |
  \\      /  F ield         | OpenFOAM: The Open Source CFD Toolbox
   \\    /   O peration     | Website:  https://openfoam.org
    \\  /    A nd           | Version:  8
     \\/     M anipulation  |
\*---------------------------------------------------------------------------*/
FoamFile
{
    version     2.0;
    format      ascii;
    class       volScalarField;
    location    "0.3";
    object      rho;
}
// * * * * * * * * * * * * * * * * * * * * * * * * * * * * * * * * * * * * * //

dimensions      [1 -3 0 0 0 0 0];

internalField   nonuniform List<scalar> 
1800
(
0.853174306587243581
0.853174022303821666
0.853173875845265606
0.853173853723267706
0.853173831812025774
0.853173779208777239
0.853173719970774513
0.853173671154463409
0.853173630470816069
0.853173590205900778
0.853173547863459336
0.853173505244182007
0.853173464020356875
0.85317342409192054
0.853173384682716196
0.853174058596809837
0.853173963689127457
0.853173872023777591
0.853173835337963093
0.853173809677347794
0.853173765930021144
0.853173713345000473
0.85317366668810557
0.853173626877882563
0.85317358780418262
0.853173546737955313
0.853173505127823972
0.853173464727116748
0.853173425677645536
0.853173387340024014
0.853174049683609992
0.853173977870084754
0.853173887528667074
0.853173835752215948
0.853173806655335265
0.85317376840194703
0.853173719257462881
0.853173672171201436
0.853173631315446768
0.853173592248961055
0.853173551718569789
0.853173510485103592
0.853173470241917031
0.853173431371313407
0.853173393534658708
0.853173946204718758
0.853173907799113063
0.853173852962093471
0.853173813759826372
0.853173786541319812
0.85317375270917839
0.853173709311282447
0.853173665606897336
0.853173626256296447
0.853173588602436639
0.853173549712937351
0.853173509884190939
0.853173470678973977
0.853173432722551306
0.853173395871301588
0.853173936318456394
0.853173912259529876
0.85317386527611605
0.853173820639918645
0.853173786677389634
0.853173752614752701
0.853173712173719512
0.853173669759612174
0.853173629888921869
0.853173591814928134
0.853173553226588832
0.853173513879433743
0.853173474948262234
0.853173437141845126
0.853173400454654618
0.853173887086817628
0.853173867150638032
0.85317383184224127
0.853173797667427403
0.853173769218578237
0.853173739263902164
0.853173703116086979
0.853173663804347338
0.853173625496847166
0.853173588525521276
0.853173551221082627
0.853173513094713454
0.853173475029874506
0.853173437795651024
0.85317340150254084
0.853173880446965627
0.85317386886847868
0.853173840939489669
0.8531738064895934
0.853173773762546883
0.853173741390587326
0.853173705557056627
0.853173666955431176
0.853173628498793857
0.853173591065785608
0.853173553662410766
0.853173515706613372
0.853173477765162946
0.853173440534346406
0.853173404194610074
0.85317385692158898
0.853173843996335335
0.853173817877648788
0.853173787925653571
0.853173759558614409
0.853173730697617039
0.853173697941662201
0.853173661784278559
0.853173624835415811
0.85317358832429202
0.853173551800135876
0.853173514693093882
0.853173477423188942
0.853173440634559688
0.853173404534858681
0.853173855838887496
0.853173847577765154
0.853173826543302649
0.853173797497870812
0.853173766727447602
0.853173735372570574
0.853173701583308297
0.853173665026542238
0.853173627486118247
0.853173590384289637
0.853173553492484249
0.853173516320804737
0.853173478951709474
0.853173441951072697
0.853173405712167043
0.853173847182583378
0.853173836901520377
0.853173814092077154
0.853173785529960926
0.85317375701279996
0.853173728196132242
0.853173696350411404
0.853173661239617576
0.853173624762000093
0.85317358843178881
0.85317355212268331
0.853173515401239979
0.85317347840806057
0.853173441704188074
0.85317340564270705
0.853173847326192614
0.853173837046738659
0.853173814237521588
0.853173785662722728
0.853173757064555671
0.853173728271096055
0.853173696573321094
0.853173661431026464
0.853173624875873893
0.853173588465721666
0.853173552237346144
0.853173515578395159
0.853173478570614763
0.853173441809141231
0.853173405701588838
0.853173855906864009
0.853173847673294294
0.853173826619601949
0.853173797610270013
0.853173766818268953
0.85317373547206321
0.853173701655162375
0.853173665086741417
0.853173627592830885
0.85317359046624397
0.853173553593152389
0.853173516370288376
0.853173478994941337
0.853173442039292795
0.853173405794679596
0.853173856924466456
0.853173844000490234
0.853173817919269495
0.853173787894860314
0.853173759496677286
0.853173730657273532
0.853173698031409411
0.853173661870083921
0.853173624789874352
0.853173588246646464
0.853173551751675197
0.853173514757682883
0.853173477485787757
0.853173440596439847
0.853173404481148645
0.85317388045036846
0.853173868874164465
0.853173840951390927
0.853173806473420671
0.853173773733426066
0.85317374137802493
0.853173705594824638
0.853173666990392765
0.853173628480363266
0.853173591027213796
0.853173553640258708
0.853173515729225729
0.853173477787943169
0.853173440517692727
0.85317340416651033
0.85317388708953168
0.853173867154399579
0.853173831845359776
0.853173797658658195
0.853173769204983001
0.853173739260052799
0.853173703132191208
0.853173663818385553
0.85317362548827802
0.853173588506252023
0.853173551209573722
0.853173513101265657
0.853173475036771545
0.853173437786657773
0.853173401486997718
0.853173936320618553
0.853173912261677048
0.853173865276553034
0.853173820635075075
0.853173786670903045
0.853173752613426539
0.853173712180367083
0.853173669764738851
0.85317362988404355
0.853173591804613496
0.853173553219561787
0.853173513879682321
0.853173474948645039
0.853173437135612445
0.853173400444991792
0.853173946206166156
0.853173907800271802
0.853173852961885193
0.85317381375711332
0.853173786538033108
0.853173752708414224
0.853173709313684858
0.853173665608183529
0.853173626252855088
0.853173588596158772
0.853173549707874512
0.85317350988201246
0.853173470676749202
0.853173432717451496
0.853173395864501027
0.85317404968463606
0.853173977870743561
0.853173887528351549
0.853173835750628995
0.85317380665349507
0.853173768401248034
0.853173719257924512
0.853173672170819297
0.85317363131263102
0.85317359224454381
0.853173551714447309
0.853173510482039377
0.853173470238730802
0.853173431366838542
0.85317339352940269
0.853174058597521823
0.853173963689522696
0.85317387202349082
0.853173835336925479
0.853173809676115891
0.853173765929250982
0.853173713344578144
0.853173666687002896
0.8531736268753356
0.853173587800589828
0.85317354673427348
0.853173505124469767
0.853173464723617547
0.853173425673529828
0.853173387335582012
0.853174306587795472
0.853174022304088564
0.853173875845009033
0.853173853722481335
0.853173831811049332
0.853173779207978877
0.853173719970017896
0.853173671153105162
0.853173630468396671
0.853173590202654375
0.853173547859975789
0.853173505240752306
0.853173464016784955
0.853173424088002341
0.853173384678637237
0.853173353847202387
0.85317332973632487
0.853173302236787001
0.853173271564138802
0.853173241741647659
0.853173214270025237
0.853173188024382134
0.853173161677987513
0.853173134212320217
0.853173102876655154
0.853173058622393343
0.853172976602920907
0.853172797085631651
0.853172395619641533
0.853171559951438341
0.853169916604866518
0.853166734405063409
0.853160713466182496
0.853149612299229476
0.853129691862287043
0.853094933382597453
0.853036056875035364
0.852939442205875697
0.852791870229701043
0.852576744953359222
0.852276373140563037
0.851876977206580399
0.851367081138938886
0.850737737635424041
0.849986283678304422
0.849114738816170611
0.848128141858052298
0.847035768467539585
0.845852401057134329
0.844599570249958354
0.843305382199744935
0.842002715188601258
0.840726516687141046
0.839506628687399448
0.838363367147181848
0.837310029599639294
0.836351202392438986
0.835481555644461582
0.83469934899682019
0.834008914492340381
0.833405155532196407
0.832827218405446934
0.832133750470454236
0.831409836478457898
0.830776023155327614
0.830278959295707275
0.829778929144361355
0.829259875695566917
0.828747028854156853
0.828257526039891556
0.827789536690324845
0.827333290897680262
0.826865455761868984
0.826325005202994678
0.825700844427415093
0.825072874375829657
0.824626820487141865
0.824225136991344254
0.823846613697565289
0.823499275019226151
0.823187203123627587
0.822839790133933713
0.822420134020832028
0.821947018865628154
0.821537552467477172
0.821233560583421451
0.820876877435963603
0.820444093161516008
0.820174281595786203
0.819887660724461842
0.85317335620864887
0.853173331285036696
0.853173304047078918
0.853173274025449735
0.85317324455739818
0.853173217184989507
0.853173191129796282
0.853173165398558142
0.853173139823324211
0.85317311453656719
0.85317308906362066
0.853173061532747856
0.853173027402347128
0.853172977016109724
0.853172893889242334
0.853172750484736175
0.853172492555365092
0.85317202413589921
0.853171179792448831
0.853169682453663536
0.853167082561440693
0.853162675907928159
0.85315540056792194
0.853143713541066662
0.853125595450126561
0.853097857779635538
0.853056418002701267
0.853001601469795423
0.852927405367779445
0.85282850560190282
0.852704470531741032
0.852551522320857402
0.852366301637849211
0.852145460045233616
0.851889123153279137
0.851598843010284545
0.851266764698055622
0.85090132703300192
0.850519073387158486
0.850087328097868133
0.8496089691657156
0.849177597489278235
0.848721218030147329
0.848129834284147011
0.847530367186140166
0.846989666970138444
0.846441692993025407
0.846010336351268322
0.845644429964416466
0.845157824892992959
0.844491139471214125
0.843955045490510369
0.843486813262287138
0.842868834550338009
0.842089773873888614
0.841456904742957534
0.841122885900271622
0.840894121493264923
0.840600162137467244
0.840199322401336324
0.839664064718162795
0.839027411567001669
0.838162055371045711
0.837093220087380185
0.836042179419353437
0.835437947655372048
0.83519199091807339
0.834903752986294601
0.834492464740297479
0.833906246340684332
0.833097519767353023
0.832402099037460208
0.831884852108106476
0.831048886475032389
0.830044000890931777
0.853173361007384612
0.853173334140293838
0.853173307126383174
0.853173278039664362
0.853173248865057299
0.853173221256851799
0.853173194984390593
0.853173169218063965
0.853173143719522242
0.853173118743115078
0.853173094451386782
0.853173070658070798
0.853173046862183981
0.853173022166466954
0.853172995121749822
0.853172963363577175
0.853172922173611736
0.853172863232495415
0.853172772233659393
0.853172625168297727
0.853172382794956441
0.85317198278245765
0.853171329033663994
0.853170277647112618
0.853168615948866726
0.853166025645009429
0.853162016882610064
0.85315653344074327
0.853149025599556521
0.853137913720386831
0.853124055653212809
0.853104884340100345
0.853082007978329893
0.85305235755731279
0.853011154270396643
0.852968959913942393
0.852920237281272864
0.852851288148187225
0.852776987524827224
0.852706026341450873
0.852608766989738531
0.852496830736073852
0.852396845439193585
0.852267124439720525
0.852109532132519276
0.851967192659563777
0.851839427737065114
0.851715904205215479
0.851590715806376353
0.851422476193148592
0.851191151029202731
0.850941399826895317
0.850767133491798777
0.850552194029983721
0.850255418217105818
0.850063950991120976
0.849904804118453039
0.849704210601030629
0.849539405212423326
0.849398656896858451
0.849205883008579909
0.848941492071211945
0.848679993141460476
0.84833415203007323
0.847936923287205824
0.847615226635608843
0.847297096147269557
0.846994650788592263
0.84670489208122246
0.846419410532961436
0.846138648995439002
0.845796051585542719
0.845308651038726877
0.844736313627795665
0.843965925604699185
0.853173362479646369
0.853173334793891902
0.853173308754455961
0.853173281031442854
0.853173252408374383
0.853173224772798555
0.85317319851907103
0.8531731729691997
0.853173147702299572
0.853173122866751177
0.853173098709405275
0.853173075249571089
0.853173052349070371
0.853173029869503718
0.853173007697829111
0.853172985661983074
0.853172963371686355
0.853172940128443691
0.853172914755229272
0.853172885298443706
0.853172848556564167
0.853172799386002878
0.853172729699984367
0.853172627017829144
0.853172472329220444
0.853172236937208672
0.853171878927079019
0.853171354390358405
0.853170633960490976
0.853169565808545305
0.853168113071977152
0.853166024651070831
0.853163555335010093
0.853160069709100966
0.85315501082454237
0.853149483170988265
0.853143096269145085
0.853133920976623328
0.853122084761087751
0.85311155938254557
0.853097333499713173
0.853077557676168441
0.853059025649468339
0.853038953688203705
0.853011860876204842
0.852979605229195359
0.852952858198005703
0.852920404597164783
0.852881010007660811
0.852846186452895449
0.852803253658817928
0.85274368732323591
0.852692638086262278
0.852640492568308872
0.852567535889708683
0.852504681551567445
0.852464044853920688
0.852418775694533171
0.852380164516212568
0.852333913859292025
0.852270841595242801
0.852196026821169017
0.852127036486118539
0.852035051328129622
0.851928766252336489
0.851846420198093202
0.851773242753503412
0.851703224951008586
0.851609944143456032
0.851513488001545027
0.851419949872340931
0.851305847403698857
0.851160627571557971
0.850964463083731637
0.850680508057602647
0.853173366548263035
0.853173338121849034
0.853173312198657996
0.853173284919844344
0.853173256349368359
0.85317322845580712
0.853173202031126121
0.853173176486714202
0.853173151236110039
0.85317312632210629
0.853173102032822483
0.853173078465421009
0.853173055523193669
0.853173033110357859
0.853173011212543408
0.853172989840724649
0.853172968963146983
0.853172948497034733
0.853172928319820945
0.853172908256512375
0.853172888034767762
0.853172867218927156
0.853172845124056556
0.853172820695071055
0.853172792331779228
0.853172757651552538
0.853172713210626932
0.853172654198150138
0.853172574759072821
0.853172464796276064
0.853172311736728806
0.853172094871883724
0.853171830099536566
0.853171450886392346
0.853170893015453902
0.85317025675022784
0.853169486130890831
0.853168386750252639
0.853166839195219517
0.853165420612432834
0.853163472162985381
0.85316068533060363
0.853158030555327462
0.853154864128586654
0.85315098843193482
0.853145829564658675
0.853141113938552742
0.853136063189931071
0.853129125764216845
0.853121496136731605
0.853113485930439674
0.853102538615869377
0.853090609679494349
0.853080389330348132
0.853066660314194758
0.85305171089658971
0.853040696012015376
0.853028894992356013
0.853015178541571828
0.853002393723360064
0.852988043264344853
0.852968616472378871
0.852949440323834351
0.85293227987619058
0.852909612689256247
0.852886199710753523
0.852872481955305406
0.852857739787301394
0.852838837382253745
0.852820647416643429
0.852796583747866266
0.852767802097919247
0.852729302677705081
0.852678927969317657
0.852597373082012222
0.853173367382942471
0.853173338844706475
0.853173313258486221
0.853173286549597343
0.853173258386889843
0.853173230666739557
0.853173204365919369
0.853173178995368375
0.853173153910942061
0.85317312909156251
0.853173104841795871
0.853173081303924552
0.853173058394867012
0.853173036008536223
0.853173014129779417
0.853172992789527851
0.853172971992040674
0.853172951705526761
0.853172931890485042
0.853172912514939319
0.853172893545495636
0.853172874932295322
0.853172856600411866
0.853172838443778669
0.8531728203129747
0.853172801993783869
0.853172783178402061
0.853172763431250147
0.853172742141091733
0.853172718439768163
0.85317269111673788
0.853172658310377807
0.853172619349952366
0.853172569255478797
0.853172501896749313
0.853172425026795578
0.85317232908363827
0.853172197814498823
0.853172014740856133
0.853171834330454404
0.853171588743147469
0.853171239848301677
0.853170881200968845
0.853170478322299641
0.853169941423836065
0.853169212550881517
0.853168521447244643
0.853167699465087304
0.853166590573350536
0.85316542138475826
0.853164151892076839
0.853162450227347713
0.853160493841611411
0.853158647660616998
0.853156285414692683
0.853153368177771987
0.853150874177227792
0.8531486582679777
0.853145733561335495
0.85314253336775081
0.85313947573604243
0.853135480597057128
0.853130978842696064
0.853127177092632638
0.853123086853298074
0.853117478935867091
0.853113309856024626
0.853110308276480378
0.853107159836143047
0.853103041899194836
0.853097437916889523
0.853090027079786761
0.85307986328248353
0.853064823179443432
0.853039543501852182
0.853173370024759792
0.853173341300616284
0.853173315676212463
0.853173289092461817
0.853173261001351824
0.853173233199108871
0.853173206775561965
0.853173181334900388
0.853173156215396244
0.85317313134195405
0.853173107008292742
0.853173083380927233
0.853173060390277627
0.853173037924099154
0.853173015959733161
0.853172994530527418
0.853172973648599342
0.853172953288643621
0.853172933416848855
0.853172914011666061
0.853172895059035041
0.85317287654025864
0.853172858428894232
0.853172840694553569
0.853172823305102468
0.853172806224576918
0.853172789409368693
0.853172772804733359
0.85317275634105616
0.8531727399281539
0.853172723447154335
0.853172706738633546
0.853172689588235333
0.853172671665752613
0.853172652443793145
0.853172632244189932
0.853172609898893097
0.853172584327353212
0.853172553697976621
0.853172521871688239
0.853172482674879995
0.853172431948953758
0.85317237740464813
0.853172316075407999
0.853172238622784129
0.853172139877698577
0.853172043391596802
0.853171934019528733
0.853171789060812591
0.853171615533022787
0.853171424748399132
0.853171170784573829
0.853170870442340634
0.85317057285440423
0.853170195855196045
0.853169717484494661
0.853169284537085071
0.853168886209060062
0.853168365725672895
0.853167768659220949
0.853167134731266708
0.853166370916525918
0.853165524467260017
0.853164675490225899
0.853163750861931303
0.853162802080571603
0.853161944543597617
0.853161037382766052
0.853159860526300662
0.853158271969662874
0.85315606740015737
0.853152887443685004
0.853148058011976129
0.853140196486885882
0.853126183781501402
0.853173370353351279
0.853173341665142915
0.853173316211904176
0.853173289859458284
0.853173261966379659
0.853173234264822833
0.853173207933723199
0.853173182595415303
0.853173157590623843
0.853173132807416024
0.853173108522883972
0.853173084923730563
0.853173061957425372
0.85317303951095258
0.853173017553982338
0.853172996119621607
0.853172975224809838
0.853172954847713716
0.853172934955072182
0.853172915525297615
0.853172896545905335
0.853172878001508872
0.853172859870324207
0.853172842128557707
0.853172824754021453
0.853172807725780857
0.853172791022416277
0.853172774621405838
0.853172758499574413
0.853172742633377612
0.853172726998393305
0.853172711568242037
0.853172696313386658
0.853172681199142358
0.853172666184428663
0.853172651225448386
0.853172636262676476
0.853172621214221549
0.853172605962570385
0.853172590751829829
0.853172575269981248
0.853172559319276935
0.853172543441828024
0.853172527275357306
0.853172509311347027
0.853172488528713191
0.853172466041239752
0.853172440390003839
0.853172410543458715
0.853172376422888568
0.853172340683594044
0.853172299713844784
0.853172254320332391
0.853172205774798131
0.853172145810119464
0.853172072141425764
0.853171997580237873
0.853171920818675211
0.853171829872191867
0.853171725021425797
0.85317160690869287
0.853171471363612266
0.853171319159385266
0.853171145761303484
0.853170929299795433
0.853170644727753169
0.853170263670967377
0.853169740041983315
0.853168995028342869
0.853167896082714483
0.85316622212716986
0.85316359204201464
0.853159308990751653
0.853151988244430726
0.853138616502754688
0.853173371498090694
0.853173342791519018
0.85317331725799983
0.853173290923809335
0.853173263040851393
0.853173235346219028
0.853173208925117721
0.853173183537265012
0.85317315849222275
0.85317313366448766
0.853173109321469947
0.853173085661700692
0.85317306264525572
0.853173040154496798
0.853173018153031149
0.853172996671835993
0.853172975731454342
0.853172955311375381
0.853172935377504604
0.853172915907303597
0.853172896888779175
0.853172878307622673
0.853172860142981215
0.85317284237155433
0.853172824971652033
0.853172807923279541
0.853172791206536107
0.853172774801125522
0.853172758687198329
0.853172742846227461
0.853172727261188313
0.85317271191633548
0.853172696797074304
0.853172681889930007
0.853172667182268252
0.853172652661324027
0.853172638311592957
0.853172624110263733
0.853172610030822343
0.853172596080882584
0.85317258214670999
0.853172568029068268
0.853172553579351844
0.853172538571487893
0.853172522535227906
0.85317250821662205
0.853172496786925638
0.853172486910768635
0.85317247662704998
0.853172465090216936
0.853172452409683646
0.853172437748684231
0.853172421348021071
0.853172403914171484
0.853172384545092921
0.853172364500794811
0.8531723451916986
0.853172324849028829
0.853172300795955074
0.853172271053645903
0.853172233238772226
0.853172183744312362
0.853172117175966194
0.853172024347185309
0.853171890844612424
0.853171693131256625
0.853171394041588482
0.853170931299300994
0.853170202243362152
0.853169040919962707
0.853167176828520391
0.853164163315337953
0.853159236375292784
0.853150965920668525
0.85313620001517132
0.853173371414686965
0.853173342724605432
0.853173317299072642
0.853173291090688179
0.853173263209121346
0.853173235514937733
0.853173209144251987
0.853173183815029157
0.853173158788570918
0.853173134005006717
0.853173109684932096
0.853173086048328311
0.853173063055953085
0.85317304058581267
0.85317301860096495
0.853172997131210198
0.853172976199850441
0.853172955786363096
0.853172935857149484
0.853172916388875602
0.853172897370131023
0.85317287878798187
0.853172860621480234
0.853172842846716906
0.853172825441862015
0.853172808387248627
0.853172791663415642
0.8531727752504914
0.853172759129109615
0.853172743281395807
0.853172727691230426
0.85317271234416292
0.853172697227541743
0.853172682331072352
0.853172667647916105
0.853172653177196261
0.853172638930334681
0.853172624930614631
0.853172611177770102
0.853172597642803177
0.853172584478692264
0.853172572081188241
0.853172560829196347
0.853172550961105225
0.853172542890571983
0.853172533236593367
0.85317252078882666
0.853172506906192507
0.853172492611397715
0.853172478011159141
0.853172463668900649
0.853172449421934154
0.85317243564458678
0.853172422577711753
0.853172410791846025
0.853172399627466493
0.8531723872029644
0.853172372648748123
0.853172355313995046
0.853172333367001934
0.853172303833658496
0.853172262501995848
0.853172202685893555
0.853172113712691638
0.853171978221647032
0.853171767570755191
0.853171433258188339
0.853170895584760114
0.853170022595484134
0.853168592172987905
0.853166224695626418
0.85316228717736553
0.853155801092254307
0.853146189775829789
0.853138839422694417
0.853173371621299914
0.85317334297000047
0.85317331748280345
0.853173291134998846
0.853173263400589077
0.853173235758159731
0.853173209360142071
0.853173183959079151
0.853173158982283408
0.853173134185939097
0.853173109876792291
0.853173086240346046
0.853173063239520579
0.853173040760357937
0.85317301876330609
0.853172997282078072
0.853172976338231859
0.853172955914276998
0.853172935975076374
0.853172916498440737
0.853172897472861735
0.85317287888428428
0.853172860711597814
0.853172842930920772
0.853172825520364886
0.853172808460268883
0.853172791731197866
0.8531727753132895
0.85317275918720803
0.85317274333511417
0.853172727740887815
0.853172712390018129
0.853172697269662828
0.853172682368822044
0.853172667678328556
0.853172653189856467
0.853172638890944079
0.853172624761129317
0.853172610778295759
0.853172596867873834
0.853172582991026052
0.853172569165534855
0.853172555512791253
0.853172542787348998
0.853172532642002657
0.853172522654539356
0.853172510816082807
0.85317249794686667
0.853172485320999874
0.85317247297214871
0.853172460252933473
0.853172448125960159
0.853172436952117419
0.853172426461165423
0.853172416772558506
0.85317240492293378
0.853172389046635726
0.853172371396812013
0.853172352888863061
0.853172327261400132
0.853172289201117429
0.853172230288946287
0.853172135237776241
0.853171971425217945
0.853171788759625072
0.853171533528230053
0.853171163969305146
0.853170497736370104
0.853169324616341651
0.853167268511676902
0.853163631314004745
0.853159891950391769
0.853156167491854522
0.853152085497894563
0.853146691141620561
0.853173371622836352
0.853173342885645836
0.853173317373265183
0.853173291009262535
0.853173263158684914
0.853173235448178024
0.853173209054917225
0.853173183655565492
0.853173158621700511
0.853173133797052952
0.853173109458928658
0.853173085801451236
0.853173062781996894
0.853173040287325879
0.853173018280239059
0.853172996793586491
0.85317297584702112
0.853172955421145129
0.853172935482026884
0.8531729160072965
0.853172896984595752
0.853172878399915291
0.853172860232759733
0.853172842459799519
0.853172825059187789
0.853172808010859929
0.853172791294769084
0.853172774890323615
0.853172758777348772
0.853172742937069906
0.853172727352381588
0.853172712007765011
0.853172696889218041
0.853172681984044945
0.853172667280231556
0.853172652765015527
0.853172638422115992
0.853172624230259968
0.853172610169411594
0.853172596231203784
0.853172582358714515
0.853172568395322961
0.853172554252679904
0.853172539809037622
0.853172524423340572
0.853172510663745221
0.853172499781583382
0.853172490292486319
0.853172480241855768
0.853172469215474516
0.853172457283637775
0.853172442984226453
0.853172425940590728
0.853172409227520245
0.853172391683966413
0.853172374667274691
0.853172357122511937
0.853172335953363059
0.85317230741515937
0.853172266649787958
0.853172205379470694
0.85317210867492177
0.85317194833661103
0.853171663620558851
0.853171347077673503
0.853170923929805647
0.853170302532023528
0.853169528736368643
0.853168386889765484
0.853167316329712433
0.853166005277155803
0.853163970121450954
0.853161301588941989
0.853158161451152197
0.853152707846093983
0.853173370329117331
0.85317334170229564
0.853173316196416787
0.853173289828950798
0.853173261957719919
0.853173234308172601
0.853173207936530176
0.853173182582169898
0.853173157578845265
0.853173132798265788
0.853173108519535539
0.853173084924268021
0.853173061960667667
0.853173039515199627
0.853173017558996216
0.853172996125086902
0.85317297523102742
0.853172954854970911
0.853172934963912888
0.853172915536550724
0.85317289656036277
0.853172878020229453
0.853172859894830382
0.853172842160623168
0.853172824795616291
0.85317280777929605
0.85317279109091182
0.853172774708978232
0.853172758612086968
0.853172742779592652
0.853172727191534808
0.853172711828260266
0.853172696669970754
0.853172681695969382
0.853172666883724284
0.853172652207937254
0.853172637640114417
0.853172623151462584
0.853172608724873327
0.853172594382596738
0.853172580171743689
0.853172566149370648
0.853172552290043962
0.853172538227317867
0.853172523106930369
0.853172506493728111
0.853172487321947282
0.85317246473946784
0.853172436537076861
0.853172409714472724
0.853172384399796702
0.853172359688874282
0.853172331488604052
0.853172298249698868
0.853172258809296369
0.853172212120176243
0.853172154661623661
0.8531720842523427
0.853171996191209758
0.853171879554075696
0.853171717561738929
0.853171475806084767
0.853171072290055843
0.85317073805583854
0.853170409341247993
0.853170072510532784
0.853169661136938817
0.853169113895644093
0.853168445100112027
0.853167612538659026
0.85316643475182663
0.853164978202091362
0.853162952028685417
0.853159918929790262
0.85315477319217381
0.853173370009528642
0.853173341303131827
0.853173315667317911
0.853173289079171449
0.853173260997529881
0.853173233210258952
0.853173206777111059
0.853173181328830799
0.853173156208254291
0.853173131336238288
0.853173107005820497
0.853173083381368214
0.853173060393054072
0.853173037928469657
0.853173015965548731
0.853172994537823026
0.853172973657804312
0.853172953300468606
0.853172933432576608
0.853172914033456298
0.853172895090151817
0.853172876585749362
0.853172858496547115
0.853172840796064924
0.853172823457955976
0.853172806454938981
0.853172789756212691
0.85317277332585173
0.853172757122051317
0.85317274109531871
0.853172725184478176
0.85317270931016076
0.853172693365259138
0.853172677204779295
0.853172660653545245
0.853172643487607463
0.853172625382395355
0.853172605855510802
0.85317258423303477
0.853172559786844809
0.853172531510809296
0.853172497666538687
0.853172454590406359
0.853172392977364025
0.853172334748305561
0.853172280133721372
0.853172220682969606
0.853172150275582575
0.853172070550152872
0.853171966628823664
0.853171827420479478
0.853171652761208099
0.853171462219587173
0.85317123223365976
0.853170956588164664
0.853170614167100272
0.853170151496116524
0.853169442977406156
0.853169049473469054
0.853168671761475372
0.85316811064629039
0.853167260225625057
0.853166643490515075
0.853166089111805026
0.853165486255083372
0.853164836096815593
0.853164044297708091
0.853163108303941264
0.853162122955070767
0.853160857105423442
0.853159253854823829
0.85315752359516106
0.853155194826545005
0.853151816038846267
0.853146198547402479
0.853173367372205282
0.853173338839901318
0.853173313252047261
0.853173286542871057
0.853173258384459454
0.853173230669366678
0.853173204366460269
0.853173178993050563
0.853173153908017623
0.853173129089649263
0.853173104841993379
0.853173081306455416
0.853173058399723239
0.853173036015857256
0.853173014140308994
0.853172992804764441
0.853172972014980213
0.853172951741584029
0.853172931949264135
0.853172912613084033
0.853172893711123703
0.853172875212084847
0.853172857070626622
0.853172839227208435
0.853172821603990217
0.853172804092925507
0.853172786537800598
0.853172768715399488
0.853172750335444485
0.85317273101365465
0.853172710198144224
0.853172687059205792
0.853172660351098955
0.853172628286205881
0.853172588863005954
0.85317253941254978
0.853172474980363416
0.853172384944746454
0.85317224329209318
0.853172093412879029
0.853171931778404224
0.853171748094180393
0.853171517879729446
0.853171216918171327
0.85317087318012641
0.853170426329142195
0.853169837161800282
0.853169176018837239
0.853168493801790939
0.85316764996531147
0.853166512159557855
0.853165285307040167
0.853163739919467479