/*--------------------------------*- C++ -*----------------------------------*\
  =========                 |
  \\      /  F ield         | OpenFOAM: The Open Source CFD Toolbox
   \\    /   O peration     | Website:  https://openfoam.org
    \\  /    A nd           | Version:  8
     \\/     M anipulation  |
\*---------------------------------------------------------------------------*/
FoamFile
{
    version     2.0;
    format      ascii;
    class       volVectorField;
    location    "0.3";
    object      U;
}
// * * * * * * * * * * * * * * * * * * * * * * * * * * * * * * * * * * * * * //

dimensions      [0 1 -1 0 0 0 0];

internalField   nonuniform List<vector> 
1800
(
(0.95623343929232274 -1.10541746409154899e-11 0.000791427642495539231)
(0.950561003938464544 -1.10709640180971441e-11 0.00166944147019422364)
(0.926004484817633644 0 0.002020264150098892)
(0.884945012927335961 0 0.00218037355086692216)
(0.84558073160953573 -1.11072555175561071e-11 0.00246101242211198452)
(0.812448527829126799 -1.11195382904474125e-11 0.0028200235118970708)
(0.781695547163592575 0 0.00313678501768061739)
(0.75053925181749126 0 0.00337544719455663746)
(0.719404569863452248 0 0.00356248516471841924)
(0.689678547477632686 0 0.00372206923824787601)
(0.661820730309413685 0 0.00385361895031876688)
(0.635480881095271899 0 0.0039470775580359432)
(0.610327924295207436 0 0.00399913650250701119)
(0.586388131666440326 -1.12040294543472061e-11 0.004014313673244908)
(0.563858450688208057 -1.12119463300434939e-11 0.00401715768052006688)
(0.997862743213466463 3.31528437933686127e-11 0.041439361218066309)
(1.00759138066491305 3.31565303701413637e-11 0.0484023324603332916)
(1.01522182019369978 0 0.0459297651813776533)
(1.01324823185080759 0 0.0460882635706905339)
(1.00795127675317464 3.31560767020334995e-11 0.0468525017316358608)
(1.00375359995807689 5.52665224679627578e-11 0.0461282778467614688)
(0.999672799055778327 2.21108642890832255e-11 0.0444109642663289353)
(0.993828642487084246 0 0.042514623637022228)
(0.986236921068421757 0 0.0406561059002630495)
(0.977917855869294694 0 0.0387692553343463656)
(0.969418128004015056 0 0.0368318961154671387)
(0.96067322176496972 0 0.0348831680681371062)
(0.95155474107074034 0 0.0329452339366731184)
(0.942158630468941105 1.10784646124306661e-11 0.0309962019232462513)
(0.932707529227258858 1.10817845589872736e-11 0.0289918639375873685)
(0.999887582266170138 -2.21075193305672263e-11 0.00367101882954587065)
(1.00968944968373298 -2.2106042310523264e-11 0.00412745919065828516)
(1.02145525010890781 0 0.00438688688884451665)
(1.0274079013211781 0 0.0072422094105501272)
(1.0298578711229911 -2.20895864286660008e-11 0.0105646179266648908)
(1.03311036303379944 -4.41708789643365194e-11 0.0127239973214571898)
(1.03733135450731195 -6.62483632279490137e-11 0.0140573729045391331)
(1.04076495502401722 0 0.0152330074922985819)
(1.0428779193397042 4.41586828687094747e-11 0.0163581291580587353)
(1.04429555829147303 0 0.0172598437233476773)
(1.04548262407841852 2.20778490538325995e-11 0.017864138455283337)
(1.04637394702091391 2.20778682612666799e-11 0.018218150075800417)
(1.04678753032496008 2.20782862927126801e-11 0.0183775997851381469)
(1.0467222734819932 2.20790772689237906e-11 0.0183535167160437905)
(1.04629142883059356 0 0.0181054666032719677)
(1.00000675499233171 -4.42276123007970662e-11 0.017951608970099224)
(1.00545026769586143 -4.42287204147474122e-11 0.0289944805048268778)
(1.01329280696338153 0 0.0331535145222215596)
(1.01901515503804863 0 0.0349840409347528178)
(1.02307258374532983 -4.41958308107205939e-11 0.0364849504726944274)
(1.02793959481762442 -4.41850351868749909e-11 0.0372346261837515277)
(1.03394451983288804 4.41760969027138457e-11 0.0370610891059081488)
(1.03980563386205915 0 0.0364257898610229475)
(1.04489550830232925 -4.41606567355884639e-11 0.035669604360749424)
(1.0495655029956299 0 0.0348077437986146418)
(1.05419477378277038 -2.20736029548758049e-11 0.0337976545930606109)
(1.0587384495386174 -6.62123152123015994e-11 0.032674468878123461)
(1.06299516887823886 -6.62047253649515777e-11 0.0314925653120887925)
(1.06689352755359823 -2.206600521131782e-11 0.0302634568373069679)
(1.07047242508416107 0 0.0289687290716242711)
(1.00003221286669519 5.12575736766669829e-19 0.00243551986836448462)
(1.00354945023023467 -2.31281999641999812e-19 0.00298556655022049746)
(1.01016028769901456 0 0.00255975017537570567)
(1.01631672443744314 -4.42177201672220886e-11 0.00331326268475650625)
(1.02094930141158557 -7.05044203261646332e-21 0.00531800957037814256)
(1.02558933742812863 4.41967548221040696e-11 0.00731251586253872567)
(1.0310799212522217 0 0.00868869907993682737)
(1.03680046174360974 0 0.00972768736808483567)
(1.04213952019946943 0 0.0107374055103387767)
(1.04719940208929096 0 0.0116906399737850258)
(1.05228210541745693 0 0.0124595189074799047)
(1.0574107487212161 4.41499687454534539e-11 0.0130180787167655833)
(1.06242545322098203 4.41435434013775262e-11 0.0134107400133761327)
(1.06723146581849071 0 0.0136672224811283539)
(1.07183536973941984 0 0.0137936092986939585)
(0.999994759246177312 4.42393824107874234e-11 0.00865122593438791797)
(1.00273403597926825 4.42469332556234204e-11 0.0161463147488607565)
(1.00763436549560681 0 0.0210663759656759299)
(1.0124363787935613 4.42291336093948616e-11 0.0238522146218418385)
(1.01650616036959063 4.42201487734956651e-11 0.0255583080882855265)
(1.02080994892089216 0 0.0265175317028522456)
(1.02595007617937983 0 0.0267467669001683998)
(1.03149098296099351 0 0.0264952702576698972)
(1.03686506421596492 0 0.026055553291939159)
(1.04202915335779367 0 0.0255157853218591739)
(1.04720383298052355 4.41713518207281633e-11 0.0248470840176410364)
(1.05244844423677586 4.41641908075503769e-11 0.0240605858600766269)
(1.05764446109370502 4.41573362093571571e-11 0.0232153249256153611)
(1.06269087068177703 4.4150742903510829e-11 0.0223566028196457676)
(1.06757839648452535 0 0.0215084693567460551)
(1.0000276898213778 8.84861411436025592e-11 0.00145585289775107974)
(1.00175816041304677 8.85067484509354268e-11 0.00174935523683484489)
(1.00574696697699117 0 0.00105667394082924583)
(1.01057081270062765 0 0.000668484873500523654)
(1.01509104020169194 8.84574667371293448e-11 0.00117826065264896545)
(1.01952541420353215 8.84403166928433358e-11 0.00215131665903137495)
(1.02440748899534917 8.84238819536366125e-11 0.00304008229211270766)
(1.02964440595604234 8.84084566915507111e-11 0.00375124942013659902)
(1.03484113919295551 0 0.00442662236868135005)
(1.03987915252528418 -8.83785769994113143e-11 0.00510907156466842288)
(1.0448939542787592 -1.3254599145558013e-10 0.0057262481132103471)
(1.04996203126968379 -4.41749613419486672e-11 0.00622792697203596989)
(1.05501144004945435 -4.41681723243082752e-11 0.00662726398261030952)
(1.05995066684826145 -1.32484760278303132e-10 0.00695149607068613028)
(1.06475977090177931 -8.83060647914093737e-11 0.00721310293172054955)
(0.999995436051602793 -1.76981499046868763e-10 0.00415392238076864231)
(1.00175545307878866 -1.77031094142925649e-10 0.00836200298613200277)
(1.00532707742934613 0 0.0119442530822222084)
(1.00945115735329471 0 0.0144827597440456979)
(1.01338779152372638 -1.76948935394232812e-10 0.0161037497371644307)
(1.01741407245653814 -1.7691908252641205e-10 0.0170376384736675816)
(1.02196869417799552 -8.84445745871085239e-11 0.0174060516363725819)
(1.02698036607007581 -8.84299309898893237e-11 0.0173630791696214558)
(1.03208567781646954 0 0.0171028422627878679)
(1.03710346962459465 8.84008157635552225e-11 0.0167348100007984127)
(1.04209600117615708 8.83863481471779617e-11 0.0162706225579769062)
(1.04713505209298186 0 0.0157145257113496632)
(1.05217550427143358 0 0.0151044718026388473)
(1.0571311644334096 8.83449709921324226e-11 0.0144835475630779014)
(1.0619699499103048 8.83274926207106513e-11 0.0138792385051130802)
(1.00002157137626901 8.84955451543581563e-11 0.000297874455427603075)
(1.00125316668057218 8.85246969675379549e-11 -9.40660796567046437e-05)
(1.00426824772166357 0 -0.00118638621270125678)
(1.00835293769278023 0 -0.00225415938024971663)
(1.0126291540216863 8.84882247391246953e-11 -0.00275578392395860617)
(1.01694105095917742 8.84741002646843099e-11 -0.00274304173037467425)
(1.02155638793353121 0 -0.00251532146729583272)
(1.0265170403099626 0 -0.00222704433671512157)
(1.03157750107555768 0 -0.00187879418984869778)
(1.03655769878334159 0 -0.0014639881042639621)
(1.04148508230689418 0 -0.00103033437785747311)
(1.04643323522243992 0 -0.000621542440143053941)
(1.05138338407733833 0 -0.000246826529695668524)
(1.05626119149112596 0 0.000100549156959418989)
(1.06102971248897271 0 0.000423741067828960107)
(1.00001218875462627 -8.84988303810135181e-11 0.00147771540519916122)
(1.00144562261341585 -8.85309418134194911e-11 0.00323631194675849535)
(1.00459239770815656 0 0.00515895364847644526)
(1.0085284402583381 -8.85118825425784347e-11 0.00684456963862494633)
(1.01245786801077742 -8.8500566283693658e-11 0.00801469491908628727)
(1.01642531177498618 0 0.00866695834662326199)
(1.02079622973666306 0 0.00893107404951002694)
(1.02560891387713582 0 0.00893767914585105218)
(1.03058459959069904 0 0.00878391112855672791)
(1.03551577210707246 0 0.00852137137190946484)
(1.04041540638592855 0 0.00818313321511746246)
(1.04534914323847428 0 0.00779159851844430252)
(1.05030216268831356 0 0.00737310449989250771)
(1.05519284959915782 0 0.00695123426675472913)
(1.05997870842009756 0 0.00653651949774373877)
(0.999996994428584807 8.84988507504474226e-11 -0.00148206186370649306)
(1.0014309100228993 8.85309776285687107e-11 -0.00323586595883081302)
(1.004585613013248 0 -0.00515978586284618779)
(1.00851259770937141 8.8511915418172564e-11 -0.00684425706552989604)
(1.01244316956906077 1.7700120881123382e-10 -0.00801278624894530452)
(1.0164152846236727 8.84882318847649228e-11 -0.0086665152733000194)
(1.02078458017781082 0 -0.00893207012645141733)
(1.02558947966366287 0 -0.00893925535342589457)
(1.03056418559210128 0 -0.00878189737450218652)
(1.035501694902077 -8.84336498406547433e-11 -0.0085198344644692274)
(1.04040167041356768 -8.84195660650493395e-11 -0.00818224685723898185)
(1.04533505101895541 0 -0.00779177595714001473)
(1.0502827663263925 0 -0.00737358132449345439)
(1.05517346168352466 0 -0.00694940790098920805)
(1.0599646634216584 0 -0.00653521794982351873)
(1.00002122586338582 0 -0.000295642238172058017)
(1.00125163314184751 0 9.15456151511288526e-05)
(1.00426644307206314 0 0.00118543166041145927)
(1.00835023867329321 0 0.00225194227426622675)
(1.01262552565245056 -8.8488233766649452e-11 0.00275150042656902277)
(1.01693727528649669 -8.84741112089119155e-11 0.00273926336846310077)
(1.02155228652108265 0 0.00251200252959666616)
(1.0265126884731357 0 0.00222363700009444191)
(1.03157235530090197 0 0.00187166414922782724)
(1.03655241998489389 8.8416639295416242e-11 0.00145660043293112515)
(1.04147941767597718 1.76804820977569043e-10 0.00102255798068687123)
(1.04642733747903161 8.83883970476414447e-11 0.000613675106248554275)
(1.0513772102658463 8.83746658305895392e-11 0.000238293739360200739)
(1.05625450664458276 8.83612099219377568e-11 -0.000111991122902344693)
(1.0610227925767084 0 -0.000435576724241898189)
(0.999995435564773216 0 -0.00415296772801989657)
(1.00175716824314542 0 -0.00836166791953844163)
(1.00532889510755674 0 -0.0119442320788657116)
(1.00945263043389599 -1.76977120191730007e-10 -0.0144828278723321147)
(1.01338893681708053 -3.53897858465464539e-10 -0.0161039750422902507)
(1.01741476330419744 -1.76919078780655909e-10 -0.0170377791879165741)
(1.02196924959474056 0 -0.0174060395794378917)
(1.02698103255641615 0 -0.0173630474094201362)
(1.03208661158519832 0 -0.0171031958615875841)
(1.03710382781758992 0 -0.0167351998343014015)
(1.0420960037439404 -8.83863471499228889e-11 -0.0162709317411044059)
(1.04713483077667857 -8.83722006836337613e-11 -0.0157147048015146354)
(1.05217528728133702 -8.83584239566131754e-11 -0.0151046266613756534)
(1.05713107627321112 -8.83449719248661668e-11 -0.0144839095982532157)
(1.06196947498132688 0 -0.0138795574469587207)
(1.00002769264743785 1.76972285967000869e-10 -0.00145540564492856379)
(1.00175883148733957 1.77013494398897671e-10 -0.00174901921380410039)
(1.00574803208425179 0 -0.00105663991548973638)
(1.01057178397900405 1.76948124707147939e-10 -0.000668597213957663485)
(1.01509175574575972 3.53829858149401708e-10 -0.00117837869690168057)
(1.01952597422977176 1.7688062911597895e-10 -0.00215137086957967747)
(1.02440809304299618 1.7684775755102862e-10 -0.00304009035020283208)
(1.02964514207200897 1.7681690759703063e-10 -0.00375129222593965266)
(1.03484196964960429 0 -0.00442681042327912767)
(1.03987979021685439 -1.76757149602206092e-10 -0.00510928939734004231)
(1.04489444612667004 -1.76727984185648325e-10 -0.0057264246792805484)
(1.04996246348869926 0 -0.00622803925141752601)
(1.05501192224195073 0 -0.00662736788254095991)
(1.05995122800392827 -1.7664634340201869e-10 -0.0069516762664308231)
(1.06476026238715571 -1.76612125516747694e-10 -0.00721330528098528944)
(0.999994759695815971 -1.76957520446746386e-10 -0.00865106709072654446)
(1.00273426941606636 -1.76987723240884208e-10 -0.0161461644092565498)
(1.00763483613895977 0 -0.0210663583993644481)
(1.01243685650236759 0 -0.0238522963639141508)
(1.01650648105006747 0 -0.0255583907646438659)
(1.02081017182339884 0 -0.0265175719827441224)
(1.02595034066224011 -1.76809426450017634e-10 -0.0267467941289210448)
(1.03149133231277568 -1.76777549717381081e-10 -0.0264953341853927556)
(1.03686543892481642 0 -0.0260556837758083581)
(1.04202943784692414 1.76715420668520189e-10 -0.0255159348692340256)
(1.0472040428986984 1.76685404981489756e-10 -0.0248472175767363544)
(1.05244863188979565 0 -0.0240606963325547575)
(1.05764467956418518 0 -0.0232154408381768512)
(1.06269112989869052 1.76602969366624146e-10 -0.0223567622669233503)
(1.06757865403905194 1.76569009873302582e-10 -0.0215086732447462292)
(1.00003221342038073 -1.7693897178075804e-10 -0.00243543231152348232)
(1.00354955514321742 -1.76955456501233701e-10 -0.0029854777188491775)
(1.01016052065148365 0 -0.00255973788672836247)
(1.01631697471332139 0 -0.00331332350756729632)
(1.02094945940472148 -1.76828439254221226e-10 -0.00531807941472945203)
(1.02558942462623071 -1.76787018159921272e-10 -0.0073125609934806806)
(1.03108002305297886 0 -0.00868874080938120304)
(1.03680060680329822 0 -0.00972775997991389384)
(1.04213966446245343 0 -0.0107375180342612064)
(1.04719948842650257 0 -0.0116907673715317857)
(1.05228214073227844 0 -0.0124596433966954537)
(1.05741076447711402 0 -0.0130182003145376517)
(1.06242547639006757 0 -0.0134108766750975564)
(1.06723149954447205 0 -0.0136673970431493222)
(1.07183539888408164 0 -0.0137938357994036552)
(1.00000675508720094 1.7691044941596246e-10 -0.0179515742413117671)
(1.00545031202720603 1.76914881626341709e-10 -0.0289944438941827885)
(1.0132929134192934 0 -0.0331535115672142722)
(1.01901527540582193 0 -0.0349840771234990189)
(1.02307265664687819 1.76783322609855167e-10 -0.036484997929246428)
(1.02793962039772202 1.76740140159154596e-10 -0.0372346649688921963)
(1.03394454292844151 0 -0.0370611294739552413)
(1.03980567288855008 0 -0.0364258512851000013)
(1.04489553690632619 0 -0.0356696907696654464)
(1.04956548855199827 -3.53228610481886154e-10 -0.0348078422090927833)
(1.05419471693884459 -3.53177646365979768e-10 -0.0337977561171770233)
(1.05873836780614194 0 -0.0326745760413955297)
(1.06299507480859656 0 -0.031492690060104335)
(1.06689341932489135 0 -0.0302636145806093812)
(1.07047229174197245 0 -0.0289689349972521472)
(0.999887582379119566 0 -0.0036709993153158497)
(1.00968947372081397 0 -0.00412744196964070879)
(1.02145530403637652 0 -0.00438688994514204594)
(1.02740795972032872 0 -0.00724223545105346679)
(1.02985790007240352 0 -0.0105646521419522927)
(1.03311035755112601 0 -0.0127240284190434077)
(1.03733133578400327 0 -0.0140574061665989323)
(1.04076493328619901 0 -0.0152330546505575776)
(1.04287787862110792 0 -0.0163581929047185853)
(1.04429547737275219 3.53253044659796086e-10 -0.0172599169477784149)
(1.04548249938246163 7.06491168158259979e-10 -0.0178642165699914)
(1.04637378580482077 3.53245890405324123e-10 -0.0182182364688028148)
(1.04678733573596228 0 -0.0183777036086915195)
(1.04672203753489246 0 -0.0183536488540995343)
(1.04629113535778595 0 -0.0181056382852863504)
(0.997862743369675953 0 -0.041439354031326113)
(1.00759139307904388 0 -0.0484023265234163197)
(1.01522184632920109 0 -0.0459297669581340204)
(1.01324825767628202 0 -0.0460882786519511214)
(1.00795128174226556 -1.76832412016227081e-10 -0.0468525245934552914)
(1.00375357611243232 -1.76852874063731688e-10 -0.0461283017253593733)
(0.999672754610839265 0 -0.0444109898798758368)
(0.993828581594408789 0 -0.0425146562651864332)
(0.986236832604931557 0 -0.0406561477088387274)
(0.977917724160062396 0 -0.0387693035293359273)
(0.969417946605551695 -3.54155261531173842e-10 -0.0368319477911827411)
(0.960672990971200957 -3.54270211612102028e-10 -0.0348832239328584065)
(0.951554457953174948 0 -0.0329452989068045043)
(0.942158282534801939 0 -0.0309962836340356637)
(0.932707094980298912 0 -0.0289919724952380949)
(0.956233439331922508 -1.76866794254759586e-10 -0.000791427568806813754)
(0.950561011625153829 -1.77135424257116288e-10 -0.00166944126307614986)
(0.926004499900885514 0 -0.00202026385748412972)
(0.884945022774412338 -1.77524932888244121e-10 -0.00218037337815388862)
(0.845580724749769974 0 -0.0024610125209910301)
(0.81244849723565904 1.77912612764754679e-10 -0.00282002393162472925)
(0.781695496880646989 0 -0.00313678599210749165)
(0.750539184682177063 0 -0.00337544887273404006)
(0.719404477379453233 0 -0.00356248764707055863)
(0.689678417075563543 0 -0.00372207256432450888)
(0.661820556478302624 0 -0.00385362315329947731)
(0.635480664584488042 0 -0.00394708283160607933)
(0.610327662635600898 0 -0.00399914296559029936)
(0.586387813617710307 0 -0.00401432164638606832)
(0.563858057362803811 0 -0.00401716766911850136)
(0.546391417698105952 0 0.00397155978580126384)
(0.528436398542471597 -1.11719269949691662e-11 0.00388086990570798117)
(0.512348994513339484 -1.11791794910160351e-11 0.00382064812366445829)
(0.497979629483784214 5.03375347070192589e-10 0.00376529890846989592)
(0.48426131934541089 -1.18642908710081042e-09 0.003685947308083257)
(0.470804060299878924 6.60741589321226534e-10 0.00358346101759433964)
(0.457889151324657073 0 0.00347249953280112612)
(0.445773533509330078 -3.36319381644874148e-10 0.00336018540953501128)
(0.434424427164522897 3.36480483693737573e-10 0.00324458486015918868)
(0.423695375390245266 6.73265860111479293e-10 0.00312325676199304075)
(0.413514060735697631 -1.01033127454563895e-09 0.00299752495865965914)
(0.403887701380515163 3.36913302425640295e-10 0.00287043070703599809)
(0.394823968533990599 0 0.00274394119352807178)
(0.386296781753885377 0 0.00261870946543766529)
(0.378265671629225753 0 0.0024951960324087535)
(0.370698508616012001 3.37386295230597997e-10 0.00237424318028193462)
(0.363573015199443739 -3.37489007678866965e-10 0.00225683209172519977)
(0.356867932585399339 0 0.0021437467644595397)
(0.350558787606020605 0 0.0020355540761594665)
(0.344619883480845546 0 0.00193274808445982734)
(0.339026929720694481 0 0.00183580865469687589)
(0.333757296909695467 -3.37965722421026941e-10 0.00174512734358911806)
(0.328789003491572862 3.38074709196711356e-10 0.00166093477770496963)
(0.32410038169279487 1.12733256332680611e-11 0.00158327234826215841)
(0.319670968374281106 -5.86939870449841736e-26 0.00151194886366069368)
(0.315479542074188879 -1.1284202013149869e-11 0.00144660170230119923)
(0.311507006120361474 1.35496142069985742e-09 0.00138678722553110638)
(0.307735166305195595 -1.36728224363950609e-09 0.00133209187512838456)
(0.304146636424554528 -1.13098569280015685e-11 0.00128230552902603117)
(0.300725339892272625 0 0.00123759705059803575)
(0.297458218818762554 6.80069352335260229e-10 0.00119868343447056421)
(0.294333176866088453 -1.36188663352770158e-09 0.00116705181484892391)
(0.291338997805613897 -2.04569937469243635e-09 0.00114537329653362392)
(0.288466386994382873 2.73171157865634423e-09 0.00113815961013911384)
(0.285708055560904617 -6.84011105693842985e-10 0.00115284522473397166)
(0.283058414007993975 2.05538247522615775e-09 0.00120153167776347082)
(0.280513398211919285 -1.37250178986012405e-09 0.0013037541998217857)
(0.278070455185904286 0 0.00149085195562698495)
(0.275732229893974279 0 0.00181274701783899978)
(0.273500763556311366 0 0.00234828602467914522)
(0.271376114784050437 0 0.00322198000000248168)
(0.269355120465827935 0 0.00463356091016151311)
(0.267398960738107316 0 0.00690729038992509911)
(0.265391624984550767 1.38526943169740528e-09 0.0105407505007212386)
(0.263180130293469483 -1.38653989350145613e-09 0.0163542064843143556)
(0.260758843676351271 0 0.0227640423909957409)
(0.259386100250480867 6.94353372160440565e-10 0.0196323600642346781)
(0.25989662844066086 -6.94870824248284269e-10 0.0100667773897826184)
(0.261845421815396662 0 -0.00105717023277140921)
(0.26350232708077842 0 -0.00832225377956847048)
(0.26361185193449671 0 -0.00289725656118703127)
(0.260671952821487363 0 0.00228298070831121826)
(0.257635075714618966 0 0.00489382721779809283)
(0.255496478385149384 0 0.00717488477248731053)
(0.254122288744991431 -1.39659592598709433e-09 0.00991880841756072155)
(0.252947999998684503 1.39746119487268129e-09 0.0135813648067266389)
(0.250715165432431664 0 0.0145644188905857345)
(0.249288335594563149 -1.39917543141566919e-09 0.0100030594306753616)
(0.250658535634068702 1.3999385376182777e-09 0.00614811532157494463)
(0.253164323446544159 0 0.00334186107703345146)
(0.256272237803620018 -2.80338202916217485e-09 -0.00378397219690478244)
(0.258442098367549167 2.80490518627466293e-09 -0.0055137653664644173)
(0.257017338476386359 -1.40319559639534512e-09 0.00205300805931398021)
(0.253936075788562809 -1.40398170343148191e-09 0.00596768429666020509)
(0.251540423365724686 5.61881860282481415e-09 0.00916573339220244296)
(0.248981849722018866 -5.6215837572868072e-09 0.013025909566286754)
(0.245605464422308573 2.80068186824261854e-09 0.0116155975629453692)
(0.244738904099260829 -1.17240314771875269e-11 0.0061656806117248511)
(0.246610674456317791 2.81514297509369803e-09 0.00252455911730604249)
(0.248977572520281687 -4.94027202760987825e-09 0.00151697585018387322)
(0.250753360318127005 2.10100627304861023e-09 0.000506619799979064148)
(0.25311040631188414 1.40894694143320332e-09 -0.00525423928504153721)
(0.255404047754985652 -7.04845989825728373e-10 -0.00735197512933764927)
(0.254868509924303821 -7.05087974905597566e-10 0.00103772499191649129)
(0.249935385715852942 0 0.00430310173624521338)
(0.925164234064030588 0 0.0275200727233068099)
(0.916727390966609823 1.10017681005759701e-11 0.0262589839787145743)
(0.908716955412683047 1.10054487153645606e-11 0.0250241582626282814)
(0.901258559617006627 6.60550430630041254e-10 0.0237564250017830228)
(0.893872061582841604 -1.28850637678245553e-09 0.0225011296036856621)
(0.886335642011381375 6.72008195831223419e-10 0.0212969663495362407)
(0.878785583472434073 -2.2040273841946725e-11 0.0201404222119933307)
(0.871390964827104764 -3.30711091971061886e-10 0.0190206371508771094)
(0.864180185203410112 9.86047997372471936e-18 0.0179399333816025394)
(0.857104807509312616 9.92759513788657896e-10 0.0169063847629330674)
(0.850140608042985413 -6.62042294223564238e-10 0.0159231205730385426)
(0.843304730024255655 0 0.0149881863436642886)
(0.836619929009210339 0 0.0140997263278791023)
(0.830092153310488579 0 0.0132577690066375941)
(0.823716314389628335 0 0.0124625314229762918)
(0.817488514397288313 3.31494650421134032e-10 0.0117130821987971711)
(0.811409051377279478 -3.31582563676917794e-10 0.0110077183229445909)
(0.80547864194355534 0 0.0103447886630385674)
(0.799695611771937598 0 0.0097228682600542151)
(0.794056402366229541 0 0.00914048692205474307)
(0.788557079822602036 3.31913374237292724e-10 0.00859595329310037029)
(0.783193888940606708 -6.63983693833206052e-10 0.00808742266373341581)
(0.777962878073392372 9.96208109260235083e-10 0.00761301565045935467)
(0.772859693281675808 -6.75364777501921505e-10 0.0071712946338517965)
(0.767879947311050026 -6.42300530217111365e-10 0.00676024660276624417)
(0.763018853444056289 6.97838618133098745e-10 0.00637822199519777911)
(0.758271786566739214 1.32954915732009736e-09 0.00602329163211769939)
(0.753634257108189543 -1.29664852946497558e-09 0.00569309272571059781)
(0.749101847483460426 3.32566578485412457e-11 0.00538541896451926686)
(0.744669074878187232 2.21778134055451045e-11 0.00509729157970548012)
(0.74033224440846046 2.21850749102924501e-11 0.00482559830128333894)
(0.736087669754591944 -6.6578980497658861e-10 0.00456656163679701292)
(0.731931088094689652 -6.66049868005437412e-10 0.0043150983953029699)
(0.727858565535109081 1.33267048257118834e-09 0.00406434635211507054)
(0.723866735451584087 0 0.00380484105944247546)
(0.719952317063406566 6.66981090657589771e-10 0.00352293452776070897)
(0.716111855524146246 -1.33469401106115852e-09 0.00319821761470605271)
(0.712335996170888497 6.67737112863246462e-10 0.00279529504352440299)
(0.708618888817599046 0 0.00226428530042369546)
(0.704943143502860914 0 0.00153132834693237431)
(0.701270726465624827 0 0.000487603119397400848)
(0.697566004957536512 0 -0.000989694949728205315)
(0.693810304791058319 0 -0.003037867412291409)
(0.690094041012001558 1.34101485463072643e-09 -0.00594367049774793734)
(0.686745149006211753 -1.34212381867477288e-09 -0.01077588302312215)
(0.684646868166973954 6.71587950014346747e-10 -0.0190416232141898366)
(0.684101217374418313 -1.36815305238679702e-17 -0.020732039301979404)
(0.682401288180919052 -6.72475718926968487e-10 -0.0145591849387737404)
(0.678684884265653543 0 -0.00400847847110603461)
(0.673728376530559947 0 0.00714624684571457929)
(0.668224472842155914 1.34789017373166808e-09 0.00723074900530766562)
(0.666010777717985891 -1.34889352666870616e-09 0.00284252291357236673)
(0.664493942782245384 0 -0.000543175734289737646)
(0.661681619456336634 0 -0.00404938397415393388)
(0.658041610828052126 -1.35238383051530823e-09 -0.00708127592538430103)
(0.654938966277856083 1.35350614544422567e-09 -0.00848553716812362399)
(0.655875733892839263 0 -0.0102761062371851657)
(0.659507166549591073 -1.35431282319045299e-09 -0.0116956925667513825)
(0.659688334874831805 1.35472478105893454e-09 -0.0114231222020404824)
(0.657979662736043691 0 -0.0115064449215727047)
(0.655299081588012422 -2.71297912030258358e-09 -0.00209494249072718483)
(0.650431762486143761 2.03654850357174634e-09 0.00660799977798628459)
(0.647090361254323843 -6.79601856565263742e-10 0.00267483908449540377)
(0.645980548477249727 1.36105208241252492e-09 -0.00138718801281157507)
(0.643962446267051125 2.72568857425389124e-09 -0.0036372583044692792)
(0.642986633668773511 -3.40960276975948486e-09 -0.00550948221998667949)
(0.646463385325412698 6.93457544372410857e-10 -0.00843426692451783484)
(0.649627935326068107 1.13707659915332165e-11 -0.00877152802802873277)
(0.649493781009539362 2.73025990825403954e-09 -0.00671194136471566817)
(0.648985849219852917 -2.72075004063054273e-09 -0.00565845864256381368)
(0.649374076175045389 1.13946155453266049e-11 -0.00689611537589459537)
(0.648524577940960745 6.84324177869809e-10 -0.00101933007020215348)
(0.645001099801807976 -5.04468346976221749e-18 0.00741418810096161618)
(0.641574706231192837 -6.85529215278582568e-10 0.00394724110587817579)
(0.641894072612176347 0 0.000939970531306958432)
(1.04606739393911385 0 0.0180268640649857877)
(1.04492926322523183 0 0.0181457190676915063)
(1.04368490834287964 2.18888808808813729e-11 0.0181584770774229562)
(1.04262056637933265 3.50247600822800759e-10 0.0179771683129302633)
(1.04149060006478633 -3.50275977553722872e-10 0.0176996885633361224)
(1.04008888968916557 0 0.0174051772193531129)
(1.03846155120800043 4.37921946436940307e-11 0.0170962616724547045)
(1.03673488467497443 -6.35047417347813365e-10 0.0167557981457289971)
(1.03495374670478357 3.28505627820148725e-10 0.0163857521496958494)
(1.03309302850730744 3.28539498845149449e-10 0.0159996170327397873)
(1.03113354788859657 0 0.0156060593425451956)
(1.02908905473856849 0 0.0152070238297023191)
(1.02698386439720535 0 0.0148037008865152687)
(1.0248314312637854 0 0.014399229757291911)
(1.02263506975245599 0 0.0139972168123354192)
(1.02039771001113477 6.57512211747731779e-10 0.013600222424347946)
(1.01812582559701736 -6.57586598592830899e-10 0.0132099483820806805)
(1.01582690072485504 -4.38440710626022033e-11 0.012827998079158338)
(1.01350665494979442 -4.38490351049214059e-11 0.0124560998422991506)
(1.01116895850174426 0 0.0120958503043477935)
(1.00881708858352859 3.28941988230486162e-10 0.0117485495076962293)
(1.00645437110419933 -7.01821717616188696e-10 0.0114152687413844271)
(1.00408396572987368 9.65112858262542807e-10 0.0110969176188853609)
(1.00170853312147212 -6.36168116222124474e-10 0.0107942615237801524)
(0.999330343825924894 -6.80117581500501184e-10 0.010507702181902728)
(0.996951361148098236 6.3631009893974913e-10 0.0102373707797613605)
(0.994573389432382382 9.87488716035915125e-10 0.00998313263175307913)
(0.992197967721379692 -1.00954719029658125e-09 0.00974443558180502177)
(0.989826737146291102 2.41387121819651576e-20 0.00952054270979845255)
(0.987460732943077457 2.13593454383839326e-20 0.0093114119759067273)
(0.985100998340848522 -2.1954420815504995e-11 0.0091164304969542434)
(0.982749390924369415 -6.58715268410012863e-10 0.00893555534095351149)
(0.980406936108656479 -6.58800221414408007e-10 0.00876949010417409254)
(0.97807473276164747 1.3177798231274909e-09 0.00862039020930764274)
(0.975754897801311305 -4.39325167840729177e-11 0.00849335237431045678)
(0.973448964756011392 6.59085812153521809e-10 0.00839667204327878766)
(0.971161186376191532 -1.9336195757450801e-09 0.00834667367721511795)
(0.968894632556591917 1.36256537894582001e-09 0.00837555596066638132)
(0.966654166729711717 0 0.00853168720786886582)
(0.96445160576316713 -4.57649814190906188e-25 0.00889781618009069866)
(0.962299796410661212 4.39785005707169081e-11 0.00960652402931880603)