 vasp.5.3.5 31Mar14 (build Jan 31 2018 16:04:57) complex                        
  
 executed on             LinuxIFC date 2018.12.07  13:45:22
 running on    8 total cores
 distrk:  each k-point on    8 cores,    1 groups
 distr:  one band on NCORES_PER_BAND=   1 cores,    8 groups


--------------------------------------------------------------------------------------------------------


 INCAR:
 POTCAR:    PAW_PBE H 15Jun2001                   

 ----------------------------------------------------------------------------- 
|                                                                             |
|           W    W    AA    RRRRR   N    N  II  N    N   GGGG   !!!           |
|           W    W   A  A   R    R  NN   N  II  NN   N  G    G  !!!           |
|           W    W  A    A  R    R  N N  N  II  N N  N  G       !!!           |
|           W WW W  AAAAAA  RRRRR   N  N N  II  N  N N  G  GGG   !            |
|           WW  WW  A    A  R   R   N   NN  II  N   NN  G    G                |
|           W    W  A    A  R    R  N    N  II  N    N   GGGG   !!!           |
|                                                                             |
|      For optimal performance we recommend to set                            |
|        NCORE= 4 - approx SQRT( number of cores)                             |
|      NCORE specifies how many cores store one orbital (NPAR=cpu/NCORE).     |
|      This setting can  greatly improve the performance of VASP for DFT.     |
|      The default, NPAR=number of cores might be grossly inefficient         |
|      on modern multi-core architectures or massively parallel machines.     |
|      Do your own testing !!!!                                               |
|      Unfortunately you need to use the default for GW and RPA calculations. |
|      (for HF NCORE is supported but not extensively tested yet)             |
|                                                                             |
 ----------------------------------------------------------------------------- 

 POTCAR:    PAW_PBE H 15Jun2001                   
   VRHFIN =H: ultrasoft test                                                    
   LEXCH  = PE                                                                  
   EATOM  =    12.4884 eV,    0.9179 Ry                                         
                                                                                
   TITEL  = PAW_PBE H 15Jun2001                                                 
   LULTRA =        F    use ultrasoft PP ?                                      
   IUNSCR =        0    unscreen: 0-lin 1-nonlin 2-no                           
   RPACOR =    0.000    partial core radius                                     
   POMASS =    1.000; ZVAL   =    1.000    mass and valenz                      
   RCORE  =    1.100    outmost cutoff radius                                   
   RWIGS  =    0.700; RWIGS  =    0.370    wigner-seitz radius (au A)           
   ENMAX  =  250.000; ENMIN  =  200.000 eV                                      
   RCLOC  =    0.701    cutoff for local pot                                    
   LCOR   =        T    correct aug charges                                     
   LPAW   =        T    paw PP                                                  
   EAUG   =  400.000                                                            
   RMAX   =    1.123    core radius for proj-oper                               
   RAUG   =    1.200    factor for augmentation sphere                          
   RDEP   =    1.112    radius for radial grids                                 
   RDEPT  =    0.926    core radius for aug-charge                              
                                                                                
   Atomic configuration                                                         
    2 entries                                                                   
     n  l   j            E        occ.                                          
     1  0  0.50        -6.4927   1.0000                                         
     2  1  0.50        -3.4015   0.0000                                         
   Description                                                                  
     l       E           TYP  RCUT    TYP  RCUT                                 
     0     -6.4927494     23  1.100                                             
     0      6.8029130     23  1.100                                             
     1     -4.0817478     23  1.100                                             
  local pseudopotential read in
  atomic valenz-charges read in
  non local Contribution for L=           0  read in
    real space projection operators read in
  non local Contribution for L=           0  read in
    real space projection operators read in
  non local Contribution for L=           1  read in
    real space projection operators read in
    PAW grid and wavefunctions read in
 
   number of l-projection  operators is LMAX  =           3
   number of lm-projection operators is LMMAX =           5
 

 ----------------------------------------------------------------------------- 
|                                                                             |
|  ADVICE TO THIS USER RUNNING 'VASP/VAMP'   (HEAR YOUR MASTER'S VOICE ...):  |
|                                                                             |
|      You have a (more or less) 'small supercell' and for smaller cells      |
|      it is recommended  to use the reciprocal-space projection scheme!      |
|      The real space optimization is not  efficient for small cells and it   |
|      is also less accurate ...                                              |
|      Therefore set LREAL=.FALSE. in the  INCAR file                         |
|                                                                             |
 ----------------------------------------------------------------------------- 

 Optimization of the real space projectors (new method)

 maximal supplied QI-value         = 34.20
 optimisation between [QCUT,QGAM] = [  9.92, 20.18] = [ 27.55,114.04] Ry 
 Optimized for a Real-space Cutoff    1.26 Angstroem

   l    n(q)    QCUT    max X(q) W(low)/X(q) W(high)/X(q)  e(spline) 
   0      8     9.919    19.460    0.50E-03    0.23E-03    0.29E-06
   0      8     9.919    12.209    0.48E-03    0.23E-03    0.28E-06
   1      7     9.919     4.655    0.17E-03    0.75E-03    0.30E-06
  PAW_PBE H 15Jun2001                   :
 energy of atom  1       EATOM=  -12.4884
 kinetic energy error for atom=    0.0098 (will be added to EATOM!!)
 
 
 POSCAR: H                                       
  positions in direct lattice
  velocities in cartesian coordinates
 exchange correlation table for  LEXCH =        8
   RHO(1)=    0.500       N(1)  =     2000
   RHO(2)=  100.500       N(2)  =     4000

 VTST: version 3.1, (03/28/14)

 CHAIN: initializing optimizer
 
 OPT: Using VASP Conjugate-Gradient optimizer
 CHAIN: Read ICHAIN            0
 
 POSCAR: H                                       
  positions in direct lattice
  velocities in cartesian coordinates
 


--------------------------------------------------------------------------------------------------------


 ion  position               nearest neighbor table
   1  0.506  0.500  0.500-   2 0.75
   2  0.544  0.500  0.500-   1 0.75
 
  LATTYP: Found a simple cubic cell.
 ALAT       =    20.0000000000
  
  Lattice vectors:
  
 A1 = (  20.0000000000,   0.0000000000,   0.0000000000)
 A2 = (   0.0000000000,  20.0000000000,   0.0000000000)
 A3 = (   0.0000000000,   0.0000000000,  20.0000000000)


Analysis of symmetry for initial positions (statically):
=====================================================================
 Subroutine PRICEL returns:
 Original cell was already a primitive cell.
 

 Routine SETGRP: Setting up the symmetry group for a 
 simple cubic supercell.


 Subroutine GETGRP returns: Found 16 space group operations
 (whereof  8 operations were pure point group operations)
 out of a pool of 48 trial point group operations.


The static configuration has the point symmetry C_4v.
 The point group associated with its full space group is D_4h.


Analysis of symmetry for dynamics (positions and initial velocities):
=====================================================================
 Subroutine PRICEL returns:
 Original cell was already a primitive cell.
 

 Routine SETGRP: Setting up the symmetry group for a 
 simple cubic supercell.


 Subroutine GETGRP returns: Found 16 space group operations
 (whereof  8 operations were pure point group operations)
 out of a pool of 48 trial point group operations.


The dynamic configuration has the point symmetry C_4v.
 The point group associated with its full space group is D_4h.
 
 
 KPOINTS:  Automatic mesh                         

Automatic generation of k-mesh.
Space group operators:
 irot       det(A)        alpha          n_x          n_y          n_z        tau_x        tau_y        tau_z
    1     1.000000     0.000000     1.000000     0.000000     0.000000     0.000000     0.000000     0.000000
    2    -1.000000   180.000000     0.000000     0.707107     0.707107     0.000000     0.000000     0.000000
    3    -1.000000   180.000000     0.000000     0.000000     1.000000     0.000000     0.000000     0.000000
    4     1.000000    90.000000    -1.000000     0.000000     0.000000     0.000000     0.000000     0.000000
    5     1.000000   180.000000     1.000000     0.000000     0.000000     0.000000     0.000000     0.000000
    6     1.000000    90.000000     1.000000     0.000000     0.000000     0.000000     0.000000     0.000000
    7    -1.000000   180.000000     0.000000     1.000000     0.000000     0.000000     0.000000     0.000000
    8    -1.000000   180.000000     0.000000    -0.707107     0.707107     0.000000     0.000000     0.000000
    9    -1.000000     0.000000     1.000000     0.000000     0.000000     0.050000     0.000000     0.000000
   10     1.000000   180.000000     0.000000     0.707107     0.707107     0.050000     0.000000     0.000000
   11     1.000000   180.000000     0.000000     0.000000     1.000000     0.050000     0.000000     0.000000
   12    -1.000000    90.000000    -1.000000     0.000000     0.000000     0.050000     0.000000     0.000000
   13    -1.000000   180.000000     1.000000     0.000000     0.000000     0.050000     0.000000     0.000000
   14    -1.000000    90.000000     1.000000     0.000000     0.000000     0.050000     0.000000     0.000000
   15     1.000000   180.000000     0.000000     1.000000     0.000000     0.050000     0.000000     0.000000
   16     1.000000   180.000000     0.000000    -0.707107     0.707107     0.050000     0.000000     0.000000
 
 Subroutine IBZKPT returns following result:
 ===========================================
 
 Found      1 irreducible k-points:
 
 Following reciprocal coordinates:
            Coordinates               Weight
  0.000000  0.000000  0.000000      1.000000
 
 Following cartesian coordinates:
            Coordinates               Weight
  0.000000  0.000000  0.000000      1.000000
 


--------------------------------------------------------------------------------------------------------




 Dimension of arrays:
   k-points           NKPTS =      1   k-points in BZ     NKDIM =      1   number of bands    NBANDS=      8
   number of dos      NEDOS =    301   number of ions     NIONS =      2
   non local maximal  LDIM  =      3   non local SUM 2l+1 LMDIM =      5
   total plane-waves  NPLWV = 941192
   max r-space proj   IRMAX =   1043   max aug-charges    IRDMAX=    771
   dimension x,y,z NGX =    98 NGY =   98 NGZ =   98
   dimension x,y,z NGXF=   196 NGYF=  196 NGZF=  196
   support grid    NGXF=   196 NGYF=  196 NGZF=  196
   ions per type =               2
 NGX,Y,Z   is equivalent  to a cutoff of   8.15,  8.15,  8.15 a.u.
 NGXF,Y,Z  is equivalent  to a cutoff of  16.29, 16.29, 16.29 a.u.


 I would recommend the setting:
   dimension x,y,z NGX =    98 NGY =   98 NGZ =   98
 SYSTEM =  unknown system                          
 POSCAR =  H                                       

 Startparameter for this run:
   NWRITE =      2    write-flag & timer
   PREC   = normal    normal or accurate (medium, high low for compatibility)
   ISTART =      0    job   : 0-new  1-cont  2-samecut
   ICHARG =      2    charge: 1-file 2-atom 10-const
   ISPIN  =      1    spin polarized calculation?
   LNONCOLLINEAR =      F non collinear calculations
   LSORBIT =      F    spin-orbit coupling
   INIWAV =      1    electr: 0-lowe 1-rand  2-diag
   LASPH  =      F    aspherical Exc in radial PAW
   METAGGA=      F    non-selfconsistent MetaGGA calc.
   LSOL =      F    Solvation

 Electronic Relaxation 1
   ENCUT  =  400.0 eV  29.40 Ry    5.42 a.u.  32.61 32.61 32.61*2*pi/ulx,y,z
   ENINI  =  400.0     initial cutoff
   ENAUG  =  644.9 eV  augmentation charge cutoff
   NELM   =     60;   NELMIN=  2; NELMDL= -5     # of ELM steps 
   EDIFF  = 0.1E-05   stopping-criterion for ELM
   LREAL  =      T    real-space projection
   NLSPLINE    = F    spline interpolate recip. space projectors
   LCOMPAT=      F    compatible to vasp.4.4
   GGA_COMPAT  = T    GGA compatible to vasp.4.4-vasp.4.6
   LMAXPAW     = -100 max onsite density
   LMAXMIX     =    2 max onsite mixed and CHGCAR
   VOSKOWN=      0    Vosko Wilk Nusair interpolation
   ROPT   =   -0.00050
 Ionic relaxation
   EDIFFG = -.1E-01   stopping-criterion for IOM
   NSW    =    100    number of steps for IOM
   NBLOCK =      1;   KBLOCK =    100    inner block; outer block 
   IBRION =      2    ionic relax: 0-MD 1-quasi-New 2-CG
   NFREE  =      1    steps in history (QN), initial steepest desc. (CG)
   ISIF   =      2    stress and relaxation
   IWAVPR =     11    prediction:  0-non 1-charg 2-wave 3-comb
   ISYM   =      2    0-nonsym 1-usesym 2-fastsym
   LCORR  =      T    Harris-Foulkes like correction to forces

   POTIM  = 0.5000    time-step for ionic-motion
   TEIN   =    0.0    initial temperature
   TEBEG  =    0.0;   TEEND  =   0.0 temperature during run
   SMASS  =  -3.00    Nose mass-parameter (am)
   estimated Nose-frequenzy (Omega)   =  0.10E-29 period in steps =****** mass=  -0.914E-26a.u.
   SCALEE = 1.0000    scale energy and forces
   NPACO  =    256;   APACO  = 16.0  distance and # of slots for P.C.
   PSTRESS=    0.0 pullay stress

  Mass of Ions in am
   POMASS =   1.00
  Ionic Valenz
   ZVAL   =   1.00
  Atomic Wigner-Seitz radii
   RWIGS  =  -1.00
  virtual crystal weights 
   VCA    =   1.00
   NELECT =       2.0000    total number of electrons
   NUPDOWN=      -1.0000    fix difference up-down

 DOS related values:
   EMIN   =  10.00;   EMAX   =-10.00  energy-range for DOS
   EFERMI =   0.00
   ISMEAR =     2;   SIGMA  =   0.20  broadening in eV -4-tet -1-fermi 0-gaus

 Electronic relaxation 2 (details)
   IALGO  =     68    algorithm
   LDIAG  =      T    sub-space diagonalisation (order eigenvalues)
   LSUBROT=      F    optimize rotation matrix (better conditioning)
   TURBO    =      0    0=normal 1=particle mesh
   IRESTART =      0    0=no restart 2=restart with 2 vectors
   NREBOOT  =      0    no. of reboots
   NMIN     =      0    reboot dimension
   EREF     =   0.00    reference energy to select bands
   IMIX   =      4    mixing-type and parameters
     AMIX     =   0.40;   BMIX     =  1.00
     AMIX_MAG =   1.60;   BMIX_MAG =  1.00
     AMIN     =   0.10
     WC   =   100.;   INIMIX=   1;  MIXPRE=   1;  MAXMIX= -45

 Intra band minimization:
   WEIMIN = 0.0010     energy-eigenvalue tresh-hold
   EBREAK =  0.31E-07  absolut break condition
   DEPER  =   0.30     relativ break condition  

   TIME   =   0.40     timestep for ELM

  volume/ion in A,a.u.               =    4000.00     26993.33
  Fermi-wavevector in a.u.,A,eV,Ry     =   0.103131  0.194889  0.144711  0.010636
  Thomas-Fermi vector in A             =   0.684775
 
 Write flags
   LWAVE  =      F    write WAVECAR
   LCHARG =      F    write CHGCAR
   LVTOT  =      F    write LOCPOT, total local potential
   LVHAR  =      F    write LOCPOT, Hartree potential only
   LELF   =      F    write electronic localiz. function (ELF)
   LORBIT =      0    0 simple, 1 ext, 2 COOP (PROOUT)


 Dipole corrections
   LMONO  =      F    monopole corrections only (constant potential shift)
   LDIPOL =      F    correct potential (dipole corrections)
   IDIPOL =      3    1-x, 2-y, 3-z, 4-all directions 
   EPSILON=  1.0000000 bulk dielectric constant

 Exchange correlation treatment:
   GGA     =    PE    GGA type
   LEXCH   =     8    internal setting for exchange type
   VOSKOWN=      0    Vosko Wilk Nusair interpolation
   LHFCALC =     F    Hartree Fock is set to
   LHFONE  =     F    Hartree Fock one center treatment
   AEXX    =    0.0000 exact exchange contribution

 Linear response parameters
   LEPSILON=     F    determine dielectric tensor
   LRPA    =     F    only Hartree local field effects (RPA)
   LNABLA  =     F    use nabla operator in PAW spheres
   LVEL    =     F    velocity operator in full k-point grid
   LINTERFAST=   F  fast interpolation
   KINTER  =     0    interpolate to denser k-point grid
   CSHIFT  =0.1000    complex shift for real part using Kramers Kronig
   OMEGAMAX=  -1.0    maximum frequency
   DEG_THRESHOLD= 0.2000000E-02 threshold for treating states as degnerate
   RTIME   =    0.100 relaxation time in fs

 Orbital magnetization related:
   ORBITALMAG=     F  switch on orbital magnetization
   LCHIMAG   =     F  perturbation theory with respect to B field
   DQ        =  0.001000  dq finite difference perturbation B field



--------------------------------------------------------------------------------------------------------


 conjugate gradient relaxation of ions
 charge density and potential will be updated during run
 non-spin polarized calculation
 RMM-DIIS sequential band-by-band and
  variant of blocked Davidson during initial phase
 perform sub-space diagonalisation
    before iterative eigenvector-optimisation
 modified Broyden-mixing scheme, WC =      100.0
 initial mixing is a Kerker type mixing with AMIX =  0.4000 and BMIX =      1.0000
 Hartree-type preconditioning will be used
 using additional bands            7
 real space projection scheme for non local part
 calculate Harris-corrections to forces 
   (improved forces if not selfconsistent)
 use gradient corrections 
 use of overlap-Matrix (Vanderbilt PP)
 Methfessel and Paxton  Order N= 2 SIGMA  =   0.20


--------------------------------------------------------------------------------------------------------


  energy-cutoff  :      400.00
  volume of cell :     8000.00
      direct lattice vectors                 reciprocal lattice vectors
    20.000000000  0.000000000  0.000000000     0.050000000  0.000000000  0.000000000
     0.000000000 20.000000000  0.000000000     0.000000000  0.050000000  0.000000000
     0.000000000  0.000000000 20.000000000     0.000000000  0.000000000  0.050000000

  length of vectors
    20.000000000 20.000000000 20.000000000     0.050000000  0.050000000  0.050000000


 
 k-points in units of 2pi/SCALE and weight:  Automatic mesh                         
   0.00000000  0.00000000  0.00000000       1.000
 
 k-points in reciprocal lattice and weights:  Automatic mesh                         
   0.00000000  0.00000000  0.00000000       1.000
 
 position of ions in fractional coordinates (direct lattice) 
   0.50622849  0.50000000  0.50000000
   0.54377151  0.50000000  0.50000000
 
 position of ions in cartesian coordinates  (Angst):
  10.12456982 10.00000000 10.00000000
  10.87543018 10.00000000 10.00000000
 


--------------------------------------------------------------------------------------------------------


 k-point  1 :   0.0000 0.0000 0.0000  plane waves:  145165

 maximum and minimum number of plane-waves per node :    145165   145165

 maximum number of plane-waves:    145165
 maximum index in each direction: 
   IXMAX=   32   IYMAX=   32   IZMAX=   32
   IXMIN=  -32   IYMIN=  -32   IZMIN=  -32

 WARNING: aliasing errors must be expected set NGX to 130 to avoid them
 WARNING: aliasing errors must be expected set NGY to 130 to avoid them
 WARNING: aliasing errors must be expected set NGZ to 130 to avoid them
 aliasing errors are usually negligible using standard VASP settings
 and one can safely disregard these warnings

 serial   3D FFT for wavefunctions
 parallel 3D FFT for charge:
    minimum data exchange during FFTs selected (reduces bandwidth)


 total amount of memory used by VASP on root node   152900. kBytes
========================================================================

   base      :      30000. kBytes
   nonlr-proj:        119. kBytes
   fftplans  :      36243. kBytes
   grid      :      84214. kBytes
   one-center:          2. kBytes
   wavefun   :       2322. kBytes
 
     INWAV:  cpu time    0.00: real time    0.00
 Broyden mixing: mesh for mixing (old mesh)
   NGX = 65   NGY = 65   NGZ = 65
  (NGX  =196   NGY  =196   NGZ  =196)
  gives a total of 274625 points

 initial charge density was supplied:
 charge density of overlapping atoms calculated
 number of electron       2.0000000 magnetization 
 keeping initial charge density in first step


--------------------------------------------------------------------------------------------------------


 Maximum index for non-local projection operator          968
 Maximum index for augmentation-charges           61 (set IRDMAX)


--------------------------------------------------------------------------------------------------------


 First call to EWALD:  gamma=   0.089
 Maximum number of real-space cells 3x 3x 3
 Maximum number of reciprocal cells 3x 3x 3

 FEWALD executed in parallel
    FEWALD:  cpu time    0.00: real time    0.00


----------------------------------------- Iteration    1(   1)  ---------------------------------------


    POTLOK:  cpu time    0.90: real time    0.90
    SETDIJ:  cpu time    0.00: real time    0.00
     EDDAV:  cpu time    0.42: real time    0.44
       DOS:  cpu time    0.00: real time    0.00
    --------------------------------------------
      LOOP:  cpu time    1.32: real time    1.34

 eigenvalue-minimisations  :    24
 total energy-change (2. order) :-0.6500425E+00  (-0.2565288E+02)
 number of electron       2.0000000 magnetization 
 augmentation part        2.0000000 magnetization 

 Free energy of the ion-electron system (eV)
  ---------------------------------------------------
  alpha Z        PSCENC =         0.00121808
  Ewald energy   TEWEN  =        15.09419847
  -Hartree energ DENC   =       -24.58226082
  -exchange      EXHF   =         0.00000000
  -V(xc)+E(xc)   XCENC  =         4.34921885
  PAW double counting   =         4.26805487       -4.28581044
  entropy T*S    EENTRO =         0.01101221
  eigenvalues    EBANDS =       -20.46293902
  atomic energy  EATOM  =        24.95726533
  Solvation contrib.  Ediel  =         0.00000000
  ---------------------------------------------------
  free energy    TOTEN  =        -0.65004247 eV

  energy without entropy =       -0.66105467  energy(sigma->0) =       -0.65279552


--------------------------------------------------------------------------------------------------------




----------------------------------------- Iteration    1(   2)  ---------------------------------------


     EDDAV:  cpu time    0.40: real time    0.40
       DOS:  cpu time    0.00: real time    0.00
    --------------------------------------------
      LOOP:  cpu time    0.40: real time    0.40

 eigenvalue-minimisations  :    24
 total energy-change (2. order) :-0.6739568E+01  (-0.6739568E+01)
 number of electron       2.0000000 magnetization 
 augmentation part        2.0000000 magnetization 

 Free energy of the ion-electron system (eV)
  ---------------------------------------------------
  alpha Z        PSCENC =         0.00121808
  Ewald energy   TEWEN  =        15.09419847
  -Hartree energ DENC   =       -24.58226082
  -exchange      EXHF   =         0.00000000
  -V(xc)+E(xc)   XCENC  =         4.34921885
  PAW double counting   =         4.26805487       -4.28581044
  entropy T*S    EENTRO =         0.01101221
  eigenvalues    EBANDS =       -27.20250718
  atomic energy  EATOM  =        24.95726533
  Solvation contrib.  Ediel  =         0.00000000
  ---------------------------------------------------
  free energy    TOTEN  =        -7.38961062 eV

  energy without entropy =       -7.40062283  energy(sigma->0) =       -7.39236368


--------------------------------------------------------------------------------------------------------




----------------------------------------- Iteration    1(   3)  ---------------------------------------


     EDDAV:  cpu time    0.40: real time    0.40
       DOS:  cpu time    0.00: real time    0.00
    --------------------------------------------
      LOOP:  cpu time    0.40: real time    0.40

 eigenvalue-minimisations  :    24
 total energy-change (2. order) :-0.3592894E-01  (-0.3592894E-01)
 number of electron       2.0000000 magnetization 
 augmentation part        2.0000000 magnetization 

 Free energy of the ion-electron system (eV)
  ---------------------------------------------------
  alpha Z        PSCENC =         0.00121808
  Ewald energy   TEWEN  =        15.09419847
  -Hartree energ DENC   =       -24.58226082
  -exchange      EXHF   =         0.00000000
  -V(xc)+E(xc)   XCENC  =         4.34921885
  PAW double counting   =         4.26805487       -4.28581044
  entropy T*S    EENTRO =         0.01101221
  eigenvalues    EBANDS =       -27.23843612
  atomic energy  EATOM  =        24.95726533
  Solvation contrib.  Ediel  =         0.00000000
  ---------------------------------------------------
  free energy    TOTEN  =        -7.42553956 eV

  energy without entropy =       -7.43655177  energy(sigma->0) =       -7.42829261


--------------------------------------------------------------------------------------------------------




----------------------------------------- Iteration    1(   4)  ---------------------------------------


     EDDAV:  cpu time    0.40: real time    0.40
       DOS:  cpu time    0.00: real time    0.00
    --------------------------------------------
      LOOP:  cpu time    0.40: real time    0.40

 eigenvalue-minimisations  :    24
 total energy-change (2. order) :-0.1777818E-04  (-0.1777986E-04)
 number of electron       2.0000000 magnetization 
 augmentation part        2.0000000 magnetization 

 Free energy of the ion-electron system (eV)
  ---------------------------------------------------
  alpha Z        PSCENC =         0.00121808
  Ewald energy   TEWEN  =        15.09419847
  -Hartree energ DENC   =       -24.58226082
  -exchange      EXHF   =         0.00000000
  -V(xc)+E(xc)   XCENC  =         4.34921885
  PAW double counting   =         4.26805487       -4.28581044
  entropy T*S    EENTRO =         0.01101221
  eigenvalues    EBANDS =       -27.23845389
  atomic energy  EATOM  =        24.95726533
  Solvation contrib.  Ediel  =         0.00000000
  ---------------------------------------------------
  free energy    TOTEN  =        -7.42555734 eV

  energy without entropy =       -7.43656955  energy(sigma->0) =       -7.42831039


--------------------------------------------------------------------------------------------------------




----------------------------------------- Iteration    1(   5)  ---------------------------------------


     EDDAV:  cpu time    0.51: real time    0.51
       DOS:  cpu time    0.00: real time    0.00
    CHARGE:  cpu time    0.18: real time    0.18
    MIXING:  cpu time    0.03: real time    0.03
    --------------------------------------------
      LOOP:  cpu time    0.72: real time    0.72

 eigenvalue-minimisations  :    32
 total energy-change (2. order) :-0.1130842E-07  (-0.1024057E-07)
 number of electron       2.0000014 magnetization 
 augmentation part        0.0460274 magnetization 

 Broyden mixing:
  rms(total) = 0.44492E+00    rms(broyden)= 0.44476E+00
  rms(prec ) = 0.47949E+00
  weight for this iteration     100.00

 Free energy of the ion-electron system (eV)
  ---------------------------------------------------
  alpha Z        PSCENC =         0.00121808
  Ewald energy   TEWEN  =        15.09419847
  -Hartree energ DENC   =       -24.58226082
  -exchange      EXHF   =         0.00000000
  -V(xc)+E(xc)   XCENC  =         4.34921885
  PAW double counting   =         4.26805487       -4.28581044
  entropy T*S    EENTRO =         0.01101221
  eigenvalues    EBANDS =       -27.23845390
  atomic energy  EATOM  =        24.95726533
  Solvation contrib.  Ediel  =         0.00000000
  ---------------------------------------------------
  free energy    TOTEN  =        -7.42555735 eV

  energy without entropy =       -7.43656956  energy(sigma->0) =       -7.42831040


--------------------------------------------------------------------------------------------------------




----------------------------------------- Iteration    1(   6)  ---------------------------------------


    POTLOK:  cpu time    0.83: real time    0.83
    SETDIJ:  cpu time    0.00: real time    0.00
    EDDIAG:  cpu time    0.07: real time    0.07
  RMM-DIIS:  cpu time    0.28: real time    0.28
    ORTHCH:  cpu time    0.01: real time    0.01
       DOS:  cpu time    0.00: real time    0.00
    CHARGE:  cpu time    0.19: real time    0.19
    MIXING:  cpu time    0.04: real time    0.03
    --------------------------------------------
      LOOP:  cpu time    1.42: real time    1.41

 eigenvalue-minimisations  :    16
 total energy-change (2. order) : 0.4409953E+00  (-0.1749325E-01)
 number of electron       2.0000014 magnetization 
 augmentation part        0.0442612 magnetization 

 Broyden mixing:
  rms(total) = 0.24483E+00    rms(broyden)= 0.24483E+00
  rms(prec ) = 0.26564E+00
  weight for this iteration     100.00

 eigenvalues of (default mixing * dielectric matrix)
  average eigenvalue GAMMA=   2.1989
  2.1989

 Free energy of the ion-electron system (eV)
  ---------------------------------------------------
  alpha Z        PSCENC =         0.00121808
  Ewald energy   TEWEN  =        15.09419847
  -Hartree energ DENC   =       -27.06335312
  -exchange      EXHF   =         0.00000000
  -V(xc)+E(xc)   XCENC  =         4.70498919
  PAW double counting   =        10.99318351      -11.02430411
  entropy T*S    EENTRO =         0.01101221
  eigenvalues    EBANDS =       -24.65877160
  atomic energy  EATOM  =        24.95726533
  Solvation contrib.  Ediel  =         0.00000000
  ---------------------------------------------------
  free energy    TOTEN  =        -6.98456205 eV

  energy without entropy =       -6.99557425  energy(sigma->0) =       -6.98731510


--------------------------------------------------------------------------------------------------------




----------------------------------------- Iteration    1(   7)  ---------------------------------------


    POTLOK:  cpu time    0.83: real time    0.83
    SETDIJ:  cpu time    0.00: real time    0.00
    EDDIAG:  cpu time    0.07: real time    0.07
  RMM-DIIS:  cpu time    0.28: real time    0.28
    ORTHCH:  cpu time    0.01: real time    0.01
       DOS:  cpu time    0.00: real time    0.00
    CHARGE:  cpu time    0.18: real time    0.19
    MIXING:  cpu time    0.04: real time    0.03
    --------------------------------------------
      LOOP:  cpu time    1.41: real time    1.41

 eigenvalue-minimisations  :    16
 total energy-change (2. order) : 0.2411253E+00  (-0.4747860E-01)
 number of electron       2.0000013 magnetization 
 augmentation part        0.0414073 magnetization 

 Broyden mixing:
  rms(total) = 0.29598E-01    rms(broyden)= 0.29507E-01
  rms(prec ) = 0.32763E-01
  weight for this iteration     100.00

 eigenvalues of (default mixing * dielectric matrix)
  average eigenvalue GAMMA=   2.5864
  2.5864  2.5864

 Free energy of the ion-electron system (eV)
  ---------------------------------------------------
  alpha Z        PSCENC =         0.00121808
  Ewald energy   TEWEN  =        15.09419847
  -Hartree energ DENC   =       -30.89191947
  -exchange      EXHF   =         0.00000000
  -V(xc)+E(xc)   XCENC  =         5.25880379
  PAW double counting   =        24.46923350      -24.52176573
  entropy T*S    EENTRO =         0.01101221
  eigenvalues    EBANDS =       -21.12148293
  atomic energy  EATOM  =        24.95726533
  Solvation contrib.  Ediel  =         0.00000000
  ---------------------------------------------------
  free energy    TOTEN  =        -6.74343675 eV

  energy without entropy =       -6.75444895  energy(sigma->0) =       -6.74618980


--------------------------------------------------------------------------------------------------------




----------------------------------------- Iteration    1(   8)  ---------------------------------------


    POTLOK:  cpu time    0.84: real time    0.84
    SETDIJ:  cpu time    0.00: real time    0.00
    EDDIAG:  cpu time    0.07: real time    0.07
  RMM-DIIS:  cpu time    0.28: real time    0.28
    ORTHCH:  cpu time    0.01: real time    0.01
       DOS:  cpu time    0.00: real time    0.00
    CHARGE:  cpu time    0.18: real time    0.19
    MIXING:  cpu time    0.03: real time    0.03
    --------------------------------------------
      LOOP:  cpu time    1.41: real time    1.41

 eigenvalue-minimisations  :    16
 total energy-change (2. order) :-0.3850955E-02  (-0.4910822E-03)
 number of electron       2.0000013 magnetization 
 augmentation part        0.0414790 magnetization 

 Broyden mixing:
  rms(total) = 0.23151E-01    rms(broyden)= 0.23147E-01
  rms(prec ) = 0.25657E-01
  weight for this iteration     100.00

 eigenvalues of (default mixing * dielectric matrix)
  average eigenvalue GAMMA=   1.9871
  0.9399  2.5107  2.5107

 Free energy of the ion-electron system (eV)
  ---------------------------------------------------
  alpha Z        PSCENC =         0.00121808
  Ewald energy   TEWEN  =        15.09419847
  -Hartree energ DENC   =       -30.80382151
  -exchange      EXHF   =         0.00000000
  -V(xc)+E(xc)   XCENC  =         5.23148465
  PAW double counting   =        23.24036724      -23.28691154
  entropy T*S    EENTRO =         0.01101221
  eigenvalues    EBANDS =       -21.19210062
  atomic energy  EATOM  =        24.95726533
  Solvation contrib.  Ediel  =         0.00000000
  ---------------------------------------------------
  free energy    TOTEN  =        -6.74728770 eV

  energy without entropy =       -6.75829991  energy(sigma->0) =       -6.75004075


--------------------------------------------------------------------------------------------------------




----------------------------------------- Iteration    1(   9)  ---------------------------------------


    POTLOK:  cpu time    0.84: real time    0.84
    SETDIJ:  cpu time    0.00: real time    0.00
    EDDIAG:  cpu time    0.07: real time    0.07
  RMM-DIIS:  cpu time    0.27: real time    0.27
    ORTHCH:  cpu time    0.01: real time    0.01
       DOS:  cpu time    0.00: real time    0.00
    CHARGE:  cpu time    0.19: real time    0.19
    MIXING:  cpu time    0.04: real time    0.03
    --------------------------------------------
      LOOP:  cpu time    1.42: real time    1.41

 eigenvalue-minimisations  :    16
 total energy-change (2. order) : 0.2877638E-02  (-0.3634169E-03)
 number of electron       2.0000013 magnetization 
 augmentation part        0.0412568 magnetization 

 Broyden mixing:
  rms(total) = 0.37710E-02    rms(broyden)= 0.37621E-02
  rms(prec ) = 0.57776E-02
  weight for this iteration     100.00

 eigenvalues of (default mixing * dielectric matrix)
  average eigenvalue GAMMA=   2.5968
  4.2928  1.0031  2.7444  2.3469

 Free energy of the ion-electron system (eV)
  ---------------------------------------------------
  alpha Z        PSCENC =         0.00121808
  Ewald energy   TEWEN  =        15.09419847
  -Hartree energ DENC   =       -31.20308368
  -exchange      EXHF   =         0.00000000
  -V(xc)+E(xc)   XCENC  =         5.28534966
  PAW double counting   =        24.60072584      -24.64919450
  entropy T*S    EENTRO =         0.01101221
  eigenvalues    EBANDS =       -20.84190148
  atomic energy  EATOM  =        24.95726533
  Solvation contrib.  Ediel  =         0.00000000
  ---------------------------------------------------
  free energy    TOTEN  =        -6.74441006 eV

  energy without entropy =       -6.75542227  energy(sigma->0) =       -6.74716312


--------------------------------------------------------------------------------------------------------




----------------------------------------- Iteration    1(  10)  ---------------------------------------


    POTLOK:  cpu time    0.85: real time    0.85
    SETDIJ:  cpu time    0.00: real time    0.00
    EDDIAG:  cpu time    0.07: real time    0.07
  RMM-DIIS:  cpu time    0.28: real time    0.28
    ORTHCH:  cpu time    0.01: real time    0.01
       DOS:  cpu time    0.00: real time    0.00
    CHARGE:  cpu time    0.19: real time    0.18
    MIXING:  cpu time    0.03: real time    0.03
    --------------------------------------------
      LOOP:  cpu time    1.42: real time    1.42

 eigenvalue-minimisations  :    16
 total energy-change (2. order) :-0.1331079E-02  (-0.1360555E-03)
 number of electron       2.0000013 magnetization 
 augmentation part        0.0411673 magnetization 

 Broyden mixing:
  rms(total) = 0.27325E-02    rms(broyden)= 0.27300E-02
  rms(prec ) = 0.32380E-02
  weight for this iteration     100.00

 eigenvalues of (default mixing * dielectric matrix)
  average eigenvalue GAMMA=   2.2039
  4.2154  2.5152  2.4177  0.9356  0.9356

 Free energy of the ion-electron system (eV)
  ---------------------------------------------------
  alpha Z        PSCENC =         0.00121808
  Ewald energy   TEWEN  =        15.09419847
  -Hartree energ DENC   =       -31.41440757
  -exchange      EXHF   =         0.00000000
  -V(xc)+E(xc)   XCENC  =         5.30427453
  PAW double counting   =        24.65773714      -24.70687557
  entropy T*S    EENTRO =         0.01101221
  eigenvalues    EBANDS =       -20.65016377
  atomic energy  EATOM  =        24.95726533
  Solvation contrib.  Ediel  =         0.00000000
  ---------------------------------------------------
  free energy    TOTEN  =        -6.74574114 eV

  energy without entropy =       -6.75675335  energy(sigma->0) =       -6.74849420


--------------------------------------------------------------------------------------------------------




----------------------------------------- Iteration    1(  11)  ---------------------------------------


    POTLOK:  cpu time    0.85: real time    0.85
    SETDIJ:  cpu time    0.00: real time    0.00
    EDDIAG:  cpu time    0.07: real time    0.07
  RMM-DIIS:  cpu time    0.27: real time    0.27
    ORTHCH:  cpu time    0.01: real time    0.01
       DOS:  cpu time    0.00: real time    0.00
    CHARGE:  cpu time    0.18: real time    0.19
    MIXING:  cpu time    0.04: real time    0.04
    --------------------------------------------
      LOOP:  cpu time    1.42: real time    1.42

 eigenvalue-minimisations  :    16
 total energy-change (2. order) :-0.4929648E-03  (-0.1651379E-05)
 number of electron       2.0000013 magnetization 
 augmentation part        0.0411628 magnetization 

 Broyden mixing:
  rms(total) = 0.12739E-02    rms(broyden)= 0.12736E-02
  rms(prec ) = 0.18639E-02
  weight for this iteration     100.00

 eigenvalues of (default mixing * dielectric matrix)
  average eigenvalue GAMMA=   2.7051
  5.4024  3.9415  2.6184  2.2744  1.0211  0.9725

 Free energy of the ion-electron system (eV)
  ---------------------------------------------------
  alpha Z        PSCENC =         0.00121808
  Ewald energy   TEWEN  =        15.09419847
  -Hartree energ DENC   =       -31.40778164
  -exchange      EXHF   =         0.00000000
  -V(xc)+E(xc)   XCENC  =         5.30220763
  PAW double counting   =        24.61857443      -24.66745095
  entropy T*S    EENTRO =         0.01101221
  eigenvalues    EBANDS =       -20.65547766
  atomic energy  EATOM  =        24.95726533
  Solvation contrib.  Ediel  =         0.00000000
  ---------------------------------------------------
  free energy    TOTEN  =        -6.74623411 eV

  energy without entropy =       -6.75724632  energy(sigma->0) =       -6.74898716


--------------------------------------------------------------------------------------------------------




----------------------------------------- Iteration    1(  12)  ---------------------------------------


    POTLOK:  cpu time    0.86: real time    0.86
    SETDIJ:  cpu time    0.00: real time    0.00
    EDDIAG:  cpu time    0.07: real time    0.07
  RMM-DIIS:  cpu time    0.28: real time    0.28
    ORTHCH:  cpu time    0.01: real time    0.01
       DOS:  cpu time    0.00: real time    0.00
    CHARGE:  cpu time    0.19: real time    0.19
    MIXING:  cpu time    0.04: real time    0.04
    --------------------------------------------
      LOOP:  cpu time    1.45: real time    1.45

 eigenvalue-minimisations  :    16
 total energy-change (2. order) :-0.1839325E-02  (-0.4099330E-04)
 number of electron       2.0000013 magnetization 
 augmentation part        0.0411752 magnetization 

 Broyden mixing:
  rms(total) = 0.95683E-03    rms(broyden)= 0.95682E-03
  rms(prec ) = 0.10967E-02
  weight for this iteration     100.00

 eigenvalues of (default mixing * dielectric matrix)
  average eigenvalue GAMMA=   2.7388
  5.6257  3.8844  0.9839  1.0640  2.6947  2.6947  2.2239

 Free energy of the ion-electron system (eV)
  ---------------------------------------------------
  alpha Z        PSCENC =         0.00121808
  Ewald energy   TEWEN  =        15.09419847
  -Hartree energ DENC   =       -31.38886366
  -exchange      EXHF   =         0.00000000
  -V(xc)+E(xc)   XCENC  =         5.29598054
  PAW double counting   =        24.54515335      -24.59374209
  entropy T*S    EENTRO =         0.01101221
  eigenvalues    EBANDS =       -20.67029567
  atomic energy  EATOM  =        24.95726533
  Solvation contrib.  Ediel  =         0.00000000
  ---------------------------------------------------
  free energy    TOTEN  =        -6.74807343 eV

  energy without entropy =       -6.75908564  energy(sigma->0) =       -6.75082649


--------------------------------------------------------------------------------------------------------




----------------------------------------- Iteration    1(  13)  ---------------------------------------


    POTLOK:  cpu time    0.86: real time    0.86
    SETDIJ:  cpu time    0.00: real time    0.00
    EDDIAG:  cpu time    0.07: real time    0.07
  RMM-DIIS:  cpu time    0.27: real time    0.27
    ORTHCH:  cpu time    0.01: real time    0.01
       DOS:  cpu time    0.00: real time    0.00
    CHARGE:  cpu time    0.19: real time    0.19
    MIXING:  cpu time    0.04: real time    0.04
    --------------------------------------------
      LOOP:  cpu time    1.44: real time    1.44

 eigenvalue-minimisations  :    16
 total energy-change (2. order) :-0.2183863E-03  (-0.2502037E-05)
 number of electron       2.0000013 magnetization 
 augmentation part        0.0411601 magnetization 

 Broyden mixing:
  rms(total) = 0.83771E-03    rms(broyden)= 0.83765E-03
  rms(prec ) = 0.91516E-03
  weight for this iteration     100.00

 eigenvalues of (default mixing * dielectric matrix)
  average eigenvalue GAMMA=   2.7762
  6.9383  4.2260  3.2837  2.5883  2.2457  1.0234  1.0234  0.8810

 Free energy of the ion-electron system (eV)
  ---------------------------------------------------
  alpha Z        PSCENC =         0.00121808
  Ewald energy   TEWEN  =        15.09419847
  -Hartree energ DENC   =       -31.41263695
  -exchange      EXHF   =         0.00000000
  -V(xc)+E(xc)   XCENC  =         5.29866939
  PAW double counting   =        24.58552565      -24.63435028
  entropy T*S    EENTRO =         0.01101221
  eigenvalues    EBANDS =       -20.64919373
  atomic energy  EATOM  =        24.95726533
  Solvation contrib.  Ediel  =         0.00000000
  ---------------------------------------------------
  free energy    TOTEN  =        -6.74829182 eV

  energy without entropy =       -6.75930403  energy(sigma->0) =       -6.75104487


--------------------------------------------------------------------------------------------------------




----------------------------------------- Iteration    1(  14)  ---------------------------------------


    POTLOK:  cpu time    0.87: real time    0.87
    SETDIJ:  cpu time    0.00: real time    0.00
    EDDIAG:  cpu time    0.07: real time    0.07
  RMM-DIIS:  cpu time    0.28: real time    0.28
    ORTHCH:  cpu time    0.01: real time    0.01
       DOS:  cpu time    0.00: real time    0.00
    CHARGE:  cpu time    0.18: real time    0.19
    MIXING:  cpu time    0.04: real time    0.04
    --------------------------------------------
      LOOP:  cpu time    1.46: real time    1.46

 eigenvalue-minimisations  :    16
 total energy-change (2. order) :-0.1676666E-03  (-0.1737795E-05)
 number of electron       2.0000013 magnetization 
 augmentation part        0.0411616 magnetization 

 Broyden mixing:
  rms(total) = 0.32492E-03    rms(broyden)= 0.32492E-03
  rms(prec ) = 0.36546E-03
  weight for this iteration     100.00

 eigenvalues of (default mixing * dielectric matrix)
  average eigenvalue GAMMA=   2.9163
  7.6186  4.6762  3.7160  2.5039  2.5039  2.2085  1.0635  1.0157  0.9404

 Free energy of the ion-electron system (eV)
  ---------------------------------------------------
  alpha Z        PSCENC =         0.00121808
  Ewald energy   TEWEN  =        15.09419847
  -Hartree energ DENC   =       -31.41019727
  -exchange      EXHF   =         0.00000000
  -V(xc)+E(xc)   XCENC  =         5.29784138
  PAW double counting   =        24.57291467      -24.62167333
  entropy T*S    EENTRO =         0.01101221
  eigenvalues    EBANDS =       -20.65103903
  atomic energy  EATOM  =        24.95726533
  Solvation contrib.  Ediel  =         0.00000000
  ---------------------------------------------------
  free energy    TOTEN  =        -6.74845949 eV

  energy without entropy =       -6.75947169  energy(sigma->0) =       -6.75121254


--------------------------------------------------------------------------------------------------------




----------------------------------------- Iteration    1(  15)  ---------------------------------------


    POTLOK:  cpu time    0.87: real time    0.87
    SETDIJ:  cpu time    0.00: real time    0.00
    EDDIAG:  cpu time    0.07: real time    0.07
  RMM-DIIS:  cpu time    0.27: real time    0.28
    ORTHCH:  cpu time    0.01: real time    0.01
       DOS:  cpu time    0.00: real time    0.00
    CHARGE:  cpu time    0.19: real time    0.19
    MIXING:  cpu time    0.04: real time    0.04
    --------------------------------------------
      LOOP:  cpu time    1.46: real time    1.45

 eigenvalue-minimisations  :    16
 total energy-change (2. order) :-0.5345950E-04  (-0.1232204E-06)
 number of electron       2.0000013 magnetization 
 augmentation part        0.0411639 magnetization 

 Broyden mixing:
  rms(total) = 0.67309E-04    rms(broyden)= 0.67283E-04
  rms(prec ) = 0.97060E-04
  weight for this iteration     100.00

 eigenvalues of (default mixing * dielectric matrix)
  average eigenvalue GAMMA=   2.8886
  8.0919  5.2276  3.5322  3.2090  2.4287  2.1880  0.9912  0.9422  1.0795  1.1957

 Free energy of the ion-electron system (eV)
  ---------------------------------------------------
  alpha Z        PSCENC =         0.00121808
  Ewald energy   TEWEN  =        15.09419847
  -Hartree energ DENC   =       -31.40834945
  -exchange      EXHF   =         0.00000000
  -V(xc)+E(xc)   XCENC  =         5.29736904
  PAW double counting   =        24.56963999      -24.61835169
  entropy T*S    EENTRO =         0.01101221
  eigenvalues    EBANDS =       -20.65251492
  atomic energy  EATOM  =        24.95726533
  Solvation contrib.  Ediel  =         0.00000000
  ---------------------------------------------------
  free energy    TOTEN  =        -6.74851295 eV

  energy without entropy =       -6.75952515  energy(sigma->0) =       -6.75126600


--------------------------------------------------------------------------------------------------------




----------------------------------------- Iteration    1(  16)  ---------------------------------------


    POTLOK:  cpu time    0.86: real time    0.86
    SETDIJ:  cpu time    0.00: real time    0.00
    EDDIAG:  cpu time    0.07: real time    0.07
  RMM-DIIS:  cpu time    0.28: real time    0.28
    ORTHCH:  cpu time    0.01: real time    0.01
       DOS:  cpu time    0.00: real time    0.00
    CHARGE:  cpu time    0.19: real time    0.18
    MIXING:  cpu time    0.04: real time    0.05
    --------------------------------------------
      LOOP:  cpu time    1.45: real time    1.45

 eigenvalue-minimisations  :    15
 total energy-change (2. order) :-0.2155905E-04  (-0.3046426E-07)
 number of electron       2.0000013 magnetization 
 augmentation part        0.0411651 magnetization 

 Broyden mixing:
  rms(total) = 0.51020E-04    rms(broyden)= 0.51002E-04
  rms(prec ) = 0.65438E-04
  weight for this iteration     100.00

 eigenvalues of (default mixing * dielectric matrix)
  average eigenvalue GAMMA=   3.0501
  8.6857  5.8316  4.3316  3.3756  2.6261  2.5014  2.1641  0.9430  0.9794  1.0564
  1.0564

 Free energy of the ion-electron system (eV)
  ---------------------------------------------------
  alpha Z        PSCENC =         0.00121808
  Ewald energy   TEWEN  =        15.09419847
  -Hartree energ DENC   =       -31.40658438
  -exchange      EXHF   =         0.00000000
  -V(xc)+E(xc)   XCENC  =         5.29703594
  PAW double counting   =        24.56477151      -24.61348052
  entropy T*S    EENTRO =         0.01101221
  eigenvalues    EBANDS =       -20.65397114
  atomic energy  EATOM  =        24.95726533
  Solvation contrib.  Ediel  =         0.00000000
  ---------------------------------------------------
  free energy    TOTEN  =        -6.74853451 eV

  energy without entropy =       -6.75954671  energy(sigma->0) =       -6.75128756


--------------------------------------------------------------------------------------------------------




----------------------------------------- Iteration    1(  17)  ---------------------------------------


    POTLOK:  cpu time    0.86: real time    0.86
    SETDIJ:  cpu time    0.00: real time    0.00
    EDDIAG:  cpu time    0.07: real time    0.07
  RMM-DIIS:  cpu time    0.27: real time    0.27
    ORTHCH:  cpu time    0.01: real time    0.01
       DOS:  cpu time    0.00: real time    0.00
    CHARGE:  cpu time    0.18: real time    0.18
    MIXING:  cpu time    0.05: real time    0.05
    --------------------------------------------
      LOOP:  cpu time    1.46: real time    1.45

 eigenvalue-minimisations  :    15
 total energy-change (2. order) :-0.1362935E-04  (-0.1025003E-07)
 number of electron       2.0000013 magnetization 
 augmentation part        0.0411653 magnetization 

 Broyden mixing:
  rms(total) = 0.60022E-04    rms(broyden)= 0.60020E-04
  rms(prec ) = 0.65096E-04
  weight for this iteration     100.00

 eigenvalues of (default mixing * dielectric matrix)
  average eigenvalue GAMMA=   3.0338
  9.0499  6.1167  4.6429  3.2398  3.2398  2.4158  2.1890  1.5007  1.0350  1.0350
  0.9889  0.9521

 Free energy of the ion-electron system (eV)
  ---------------------------------------------------
  alpha Z        PSCENC =         0.00121808
  Ewald energy   TEWEN  =        15.09419847
  -Hartree energ DENC   =       -31.40728951
  -exchange      EXHF   =         0.00000000
  -V(xc)+E(xc)   XCENC  =         5.29709637
  PAW double counting   =        24.56436997      -24.61307773
  entropy T*S    EENTRO =         0.01101221
  eigenvalues    EBANDS =       -20.65334132
  atomic energy  EATOM  =        24.95726533
  Solvation contrib.  Ediel  =         0.00000000
  ---------------------------------------------------
  free energy    TOTEN  =        -6.74854813 eV

  energy without entropy =       -6.75956034  energy(sigma->0) =       -6.75130119


--------------------------------------------------------------------------------------------------------




----------------------------------------- Iteration    1(  18)  ---------------------------------------


    POTLOK:  cpu time    0.87: real time    0.87
    SETDIJ:  cpu time    0.00: real time    0.00
    EDDIAG:  cpu time    0.07: real time    0.07
  RMM-DIIS:  cpu time    0.28: real time    0.28
    ORTHCH:  cpu time    0.01: real time    0.01
       DOS:  cpu time    0.00: real time    0.00
    CHARGE:  cpu time    0.18: real time    0.18
    MIXING:  cpu time    0.05: real time    0.05
    --------------------------------------------
      LOOP:  cpu time    1.47: real time    1.47

 eigenvalue-minimisations  :    15
 total energy-change (2. order) :-0.3424710E-05  (-0.6981011E-08)
 number of electron       2.0000013 magnetization 
 augmentation part        0.0411645 magnetization 

 Broyden mixing:
  rms(total) = 0.32952E-04    rms(broyden)= 0.32949E-04
  rms(prec ) = 0.36459E-04
  weight for this iteration     100.00

 eigenvalues of (default mixing * dielectric matrix)
  average eigenvalue GAMMA=   3.1658
  9.5339  6.8322  5.0137  3.8694  3.3079  2.8857  2.4620  2.1822  1.0645  0.9672
  1.0267  1.0049  1.0049

 Free energy of the ion-electron system (eV)
  ---------------------------------------------------
  alpha Z        PSCENC =         0.00121808
  Ewald energy   TEWEN  =        15.09419847
  -Hartree energ DENC   =       -31.40881518
  -exchange      EXHF   =         0.00000000
  -V(xc)+E(xc)   XCENC  =         5.29730267
  PAW double counting   =        24.56812734      -24.61684659
  entropy T*S    EENTRO =         0.01101221
  eigenvalues    EBANDS =       -20.65201388
  atomic energy  EATOM  =        24.95726533
  Solvation contrib.  Ediel  =         0.00000000
  ---------------------------------------------------
  free energy    TOTEN  =        -6.74855156 eV

  energy without entropy =       -6.75956377  energy(sigma->0) =       -6.75130461


--------------------------------------------------------------------------------------------------------




----------------------------------------- Iteration    1(  19)  ---------------------------------------


    POTLOK:  cpu time    0.88: real time    0.88
    SETDIJ:  cpu time    0.00: real time    0.00
    EDDIAG:  cpu time    0.07: real time    0.07
  RMM-DIIS:  cpu time    0.28: real time    0.27
    ORTHCH:  cpu time    0.01: real time    0.01
       DOS:  cpu time    0.00: real time    0.00
    CHARGE:  cpu time    0.19: real time    0.19
    MIXING:  cpu time    0.06: real time    0.06
    --------------------------------------------
      LOOP:  cpu time    1.48: real time    1.48

 eigenvalue-minimisations  :    14
 total energy-change (2. order) :-0.2185412E-05  ( 0.0000000E+00)
 number of electron       2.0000013 magnetization 
 augmentation part        0.0411645 magnetization 

 Broyden mixing:
  rms(total) = 0.10002E-04    rms(broyden)= 0.10002E-04
  rms(prec ) = 0.10766E-04
  weight for this iteration     100.00

 eigenvalues of (default mixing * dielectric matrix)
  average eigenvalue GAMMA=   3.1465
  9.5539  7.0676  4.5761  4.5761  2.8498  2.8498  2.8242  2.5092  2.1907  0.9626
  1.0226  1.0226  1.0334  1.0123

 Free energy of the ion-electron system (eV)
  ---------------------------------------------------
  alpha Z        PSCENC =         0.00121808
  Ewald energy   TEWEN  =        15.09419847
  -Hartree energ DENC   =       -31.40822492
  -exchange      EXHF   =         0.00000000
  -V(xc)+E(xc)   XCENC  =         5.29721141
  PAW double counting   =        24.56651219      -24.61522775
  entropy T*S    EENTRO =         0.01101221
  eigenvalues    EBANDS =       -20.65251877
  atomic energy  EATOM  =        24.95726533
  Solvation contrib.  Ediel  =         0.00000000
  ---------------------------------------------------
  free energy    TOTEN  =        -6.74855374 eV

  energy without entropy =       -6.75956595  energy(sigma->0) =       -6.75130680


--------------------------------------------------------------------------------------------------------




----------------------------------------- Iteration    1(  20)  ---------------------------------------


    POTLOK:  cpu time    0.88: real time    0.88
    SETDIJ:  cpu time    0.00: real time    0.00
    EDDIAG:  cpu time    0.07: real time    0.07
  RMM-DIIS:  cpu time    0.28: real time    0.28
    ORTHCH:  cpu time    0.01: real time    0.01
       DOS:  cpu time    0.00: real time    0.00
    --------------------------------------------
      LOOP:  cpu time    1.23: real time    1.23

 eigenvalue-minimisations  :    14
 total energy-change (2. order) :-0.1224368E-06  ( 0.0000000E+00)
 number of electron       2.0000013 magnetization 
 augmentation part        0.0411645 magnetization 

 Free energy of the ion-electron system (eV)
  ---------------------------------------------------
  alpha Z        PSCENC =         0.00121808
  Ewald energy   TEWEN  =        15.09419847
  -Hartree energ DENC   =       -31.40810624
  -exchange      EXHF   =         0.00000000
  -V(xc)+E(xc)   XCENC  =         5.29719559
  PAW double counting   =        24.56640466      -24.61511913
  entropy T*S    EENTRO =         0.01101221
  eigenvalues    EBANDS =       -20.65262284
  atomic energy  EATOM  =        24.95726533
  Solvation contrib.  Ediel  =         0.00000000
  ---------------------------------------------------
  free energy    TOTEN  =        -6.74855387 eV

  energy without entropy =       -6.75956607  energy(sigma->0) =       -6.75130692


--------------------------------------------------------------------------------------------------------




 average (electrostatic) potential at core
  the test charge radii are     0.5201
  (the norm of the test charge is              1.0000)
       1 -41.6061       2 -41.6054
 
 
 
 E-fermi : -10.1997     XC(G=0):  -0.0705     alpha+bet : -0.0069


 k-point     1 :       0.0000    0.0000    0.0000
  band No.  band energies     occupation 
      1     -10.3263      2.00000
      2      -0.0544      0.00000
      3       0.1586      0.00000
      4       0.2519      0.00000
      5       0.3170      0.00000
      6       0.3169      0.00000
      7       0.3432      0.00000
      8       0.3458      0.00000


--------------------------------------------------------------------------------------------------------


 soft charge-density along one line, spin component           1
         0         1         2         3         4         5         6         7         8         9
 total charge-density along one line
 
 pseudopotential strength for first ion, spin component:           1
 -2.344  -4.039   0.000   0.000  -0.002
 -4.039  -6.874   0.000   0.000  -0.005
  0.000   0.000  -0.341  -0.000  -0.000
  0.000   0.000  -0.000  -0.341   0.000
 -0.002  -0.005  -0.000   0.000  -0.335
 total augmentation occupancy for first ion, spin component:           1
  3.131  -0.498   0.000   0.000   0.377
 -0.498   0.079   0.000   0.000  -0.060
  0.000   0.000   0.000   0.000   0.000
  0.000   0.000   0.000   0.000  -0.000
  0.377  -0.060   0.000  -0.000   0.045


------------------------ aborting loop because EDIFF is reached ----------------------------------------



 DIPCOR: dipole corrections for dipol
 direction  3 min pos   197,
 dipolmoment           0.000000      0.000000     -0.000000 electrons x Angstroem
 Tr[quadrupol]      -380.499473

 energy correction for charged system         0.000000 eV
 dipol+quadrupol energy correction            0.000000 eV
 added-field ion interaction          0.000000 eV  (added to PSCEN)

 
  *************** adding dipol energy to TOTEN NOW **************** 
    CHARGE:  cpu time    0.19: real time    0.19
    FORLOC:  cpu time    0.03: real time    0.03
    FORNL :  cpu time    0.09: real time    0.09
    STRESS:  cpu time    0.32: real time    0.33
    FORCOR:  cpu time    0.86: real time    0.85
    FORHAR:  cpu time    0.22: real time    0.22
    MIXING:  cpu time    0.05: real time    0.05
    OFIELD:  cpu time    0.00: real time    0.00

  Hirshfeld-DOM and Hirshfeld charges and relative Volumes:   
            ion         q(e)           q(e)           rel_vol 
   -----------------------------------------------------------
      1     H           0.014          0.000          0.796
      2     H          -0.014         -0.000          0.903

  dDsC method for vdW energy calculation
  ---------------------------------------------------------------------------------------------

  Parameters of vdW forcefield:
            C6dDsC            XDM            ALPHAts        RELVOL
            (au)              (au)            (au)                
   ---------------------------------------------------------------
   H           5.370          1.791          3.582          0.796
   H           6.760          1.987          4.065          0.903

  IVDW =   4
  VDW_RADIUS =    50.000 A
  VDW_S6 aka ATT0 =    13.960
  VDW_SR aka BTT0 =     1.320
  LVDW_ONECELL = F F F

  Number of pair interactions contributing to vdW energy:     241
  Edisp (eV):   -0.00000
    FORVDW:  cpu time    2.53: real time    2.53

  FORCE on cell =-STRESS in cart. coord.  units (eV):
  Direction    XX          YY          ZZ          XY          YZ          ZX
  --------------------------------------------------------------------------------------
  Alpha Z     0.00122     0.00122     0.00122
  Ewald      17.82014    -1.36297    -1.36297    -0.00000    -0.00000    -0.00000
  Hartree    11.96009     9.72400     9.72400    -0.00000    -0.00000    -0.00000
  E(xc)      -5.75030    -5.97083    -5.97083    -0.00000     0.00000     0.00000
  Local     -31.78504   -18.23677   -18.23677    -0.00000     0.00000    -0.00000
  n-local    -6.33625    -5.39076    -5.39076    -0.00000     0.00000     0.00000
  augment     0.20087     0.26985     0.26985     0.00000     0.00000     0.00000
  Kinetic    13.73593    20.84652    20.84652    -0.00000     0.00000     0.00000
  Fock        0.00000     0.00000     0.00000     0.00000     0.00000     0.00000
  vdW        -0.00000    -0.00000    -0.00000    -0.00000     0.00000     0.00000
  -------------------------------------------------------------------------------------
  Total      -0.15335    -0.11975    -0.11975     0.00000     0.00000     0.00000
  in kB      -0.03071    -0.02398    -0.02398     0.00000     0.00000     0.00000
  external pressure =       -0.03 kB  Pullay stress =        0.00 kB


 VOLUME and BASIS-vectors are now :
 -----------------------------------------------------------------------------
  energy-cutoff  :      400.00
  volume of cell :     8000.00
      direct lattice vectors                 reciprocal lattice vectors
    20.000000000  0.000000000  0.000000000     0.050000000  0.000000000  0.000000000
     0.000000000 20.000000000  0.000000000     0.000000000  0.050000000  0.000000000
     0.000000000  0.000000000 20.000000000     0.000000000  0.000000000  0.050000000

  length of vectors
    20.000000000 20.000000000 20.000000000     0.050000000  0.050000000  0.050000000


 FORCES acting on ions
    electron-ion (+dipol)            ewald-force                    non-local-force                 convergence-correction
 -----------------------------------------------------------------------------------------------
   0.205E+02 0.413E-13 -.496E-07   -.255E+02 -.205E-18 0.136E-18   0.505E+01 -.808E-26 -.162E-26   0.674E-05 -.143E-14 -.114E-14
   -.205E+02 0.476E-13 0.752E-07   0.255E+02 -.194E-18 0.624E-19   -.505E+01 0.323E-26 0.000E+00   -.674E-05 -.139E-14 -.115E-14
 -----------------------------------------------------------------------------------------------
   -.341E-05 0.889E-13 0.256E-07   0.000E+00 -.399E-18 0.198E-18   0.000E+00 -.485E-26 -.162E-26   0.141E-09 -.282E-14 -.229E-14
 
 
 POSITION                                       TOTAL-FORCE (eV/Angst)
 -----------------------------------------------------------------------------------
     10.12457     10.00000     10.00000        -0.001599     -0.000000      0.000000
     10.87543     10.00000     10.00000         0.001599      0.000000     -0.000000
 -----------------------------------------------------------------------------------
    total drift:                               -0.000003      0.000000      0.000000


--------------------------------------------------------------------------------------------------------



  FREE ENERGIE OF THE ION-ELECTRON SYSTEM (eV)
  ---------------------------------------------------
  free  energy   TOTEN  =        -6.74855442 eV

  energy  without entropy=       -6.75956663  energy(sigma->0) =       -6.75130747
 


--------------------------------------------------------------------------------------------------------


    POTLOK:  cpu time    0.92: real time    0.92


--------------------------------------------------------------------------------------------------------


 stress matrix after NEB project (eV)
     -0.15335      0.00000      0.00000
      0.00000     -0.11975     -0.00000
      0.00000      0.00000     -0.11975
  FORCES: max atom, RMS     0.001599    0.001599
  FORCE total and by dimension    0.002261    0.001599
  Stress total and by dimension    0.228465    0.153348


--------------------------------------------------------------------------------------------------------


  
 reached required accuracy - stopping structural energy minimisation
     LOOP+:  cpu time   29.86: real time   29.88
    4ORBIT:  cpu time    0.00: real time    0.00

 total amount of memory used by VASP on root node   152900. kBytes
========================================================================

   base      :      30000. kBytes
   nonlr-proj:        119. kBytes
   fftplans  :      36243. kBytes
   grid      :      84214. kBytes
   one-center:          2. kBytes
   wavefun   :       2322. kBytes
 
  
  
 General timing and accounting informations for this job:
 ========================================================
  
                  Total CPU time used (sec):       31.532
                            User time (sec):       30.272
                          System time (sec):        1.260
                         Elapsed time (sec):       32.516
  
                   Maximum memory used (kb):      307468.
                   Average memory used (kb):           0.
  
                          Minor page faults:       659756
                          Major page faults:            0
                 Voluntary context switches:          431
