/*--------------------------------*- C++ -*----------------------------------*\
  =========                 |
  \\      /  F ield         | OpenFOAM: The Open Source CFD Toolbox
   \\    /   O peration     | Website:  https://openfoam.org
    \\  /    A nd           | Version:  8
     \\/     M anipulation  |
\*---------------------------------------------------------------------------*/
FoamFile
{
    version     2.0;
    format      ascii;
    class       volScalarField;
    location    "0.5";
    object      CH3COCH3(s);
}
// * * * * * * * * * * * * * * * * * * * * * * * * * * * * * * * * * * * * * //

dimensions      [0 0 0 0 0 0 0];

internalField   uniform 0;

boundaryField
{
    reactingWall
    {
        type            fixedValue;
        value           nonuniform List<scalar> 
75
(
6.11244260281420779e-20
1.43726294927517886e-19
2.38522671968091127e-19
3.29991302906943314e-19
4.18324997364501175e-19
5.08646259160485856e-19
5.94430847972567222e-19
6.78253331862220517e-19
7.64959486539090237e-19
8.42924328487838027e-19
9.19081174428374526e-19
1.0010780016790852e-18
1.07060032394549799e-18
1.13735247069233738e-18
1.21353927701904802e-18
1.26798468663527265e-18
1.33334946475102134e-18
1.41016265785925564e-18
1.47331511737690237e-18
1.51602915328423595e-18
1.55922264660391778e-18
1.59829100237516713e-18
1.63242132434463341e-18
1.66142673776931035e-18
1.68527546416677013e-18
1.704383647268618e-18
1.7191973703310755e-18
1.73001692187247919e-18
1.7370629446525006e-18
1.74051702710794187e-18
1.74051161175311219e-18
1.73796451764755446e-18
1.73411379315101364e-18
1.72898525934474737e-18
1.72265830903200888e-18
1.7151418022379351e-18
1.70644457765191134e-18
1.69658236390269154e-18
1.68557301922028992e-18
1.67345150706627816e-18
1.66024549355938998e-18
1.64596235566742722e-18
1.63064298924679608e-18
1.61444347814773171e-18
1.59766017172837755e-18
1.58054133585409858e-18
1.56306085508784268e-18
1.5446238884045494e-18
1.52425433135700148e-18
1.50943400149620085e-18
1.49936911351957912e-18
1.49256995865860475e-18
1.48775034310589894e-18
1.48390700812633844e-18
1.48047328320015134e-18
1.47720733964783196e-18
1.47393845185345988e-18
1.47051267864866177e-18
1.46692464462247069e-18
1.46307691510989818e-18
1.45891873586113245e-18
1.45449232093074181e-18
1.45028956894633971e-18
1.44613466425697462e-18
1.44182786072272962e-18
1.43730211722602439e-18
1.43165098752396073e-18
1.42539280168872936e-18
1.4195848192977382e-18
1.41386023287797261e-18
1.40711766313255304e-18
1.39821084477506529e-18
1.3876198319615501e-18
1.37388070637110992e-18
1.36460179243777615e-18
)
;
    }
    inertWall
    {
        type            zeroGradient;
    }
    inlet
    {
        type            fixedValue;
        value           uniform 0;
    }
    outlet
    {
        type            zeroGradient;
    }
    defaultFaces
    {
        type            empty;
    }
}


// ************************************************************************* //
