/*--------------------------------*- C++ -*----------------------------------*\
  =========                 |
  \\      /  F ield         | OpenFOAM: The Open Source CFD Toolbox
   \\    /   O peration     | Website:  https://openfoam.org
    \\  /    A nd           | Version:  8
     \\/     M anipulation  |
\*---------------------------------------------------------------------------*/
FoamFile
{
    version     2.0;
    format      ascii;
    class       volScalarField;
    location    "0.5";
    object      CH3CHOCH3(s);
}
// * * * * * * * * * * * * * * * * * * * * * * * * * * * * * * * * * * * * * //

dimensions      [0 0 0 0 0 0 0];

internalField   uniform 0;

boundaryField
{
    reactingWall
    {
        type            fixedValue;
        value           nonuniform List<scalar> 
75
(
1.78103278333451188e-07
1.76630956980834918e-07
1.74925053337030909e-07
1.73006750827149645e-07
1.71222730444968216e-07
1.69475707254584697e-07
1.6763167415596641e-07
1.65648913444978229e-07
1.63621200384197116e-07
1.615718791368108e-07
1.59492523266065332e-07
1.57369956824066322e-07
1.55205449726698504e-07
1.53012384934344399e-07
1.50776985416130504e-07
1.48495179830299939e-07
1.46166135577318255e-07
1.43795931214357424e-07
1.41398669714944616e-07
1.3898123686596072e-07
1.36546752272730619e-07
1.34099035674608072e-07
1.3164185754907846e-07
1.29175038823782709e-07
1.26702839358492207e-07
1.2422880623301178e-07
1.21750390918385838e-07
1.19274265989555738e-07
1.16799013591227389e-07
1.14325839691611294e-07
1.11858237224195401e-07
1.09389238248040288e-07
1.09226147682610305e-07
1.09067357397405602e-07
1.08918047354336442e-07
1.0877271850652606e-07
1.08631239247182778e-07
1.08493195090353332e-07
1.08358056226013008e-07
1.0822538849425284e-07
1.08094353712155045e-07
1.07965161867971776e-07
1.07836258101094292e-07
1.07709203981361597e-07
1.07581907096535495e-07
1.07458979083171118e-07
1.07335740362528499e-07
1.07221412855289722e-07
1.0711344457396007e-07
1.07015799682031176e-07
1.06916980079094187e-07
1.06819398216660704e-07
1.06715439057224782e-07
1.06603958585813518e-07
1.06479120352059631e-07
1.06338890883401334e-07
1.06196693638552125e-07
1.06043970323157975e-07
1.05883481418875137e-07
1.05715089062713508e-07
1.05537934346653621e-07
1.05354367419009596e-07
1.05167117598442229e-07
1.04969173703108243e-07
1.04766054091891015e-07
1.04557995180511361e-07
1.04347908945620369e-07
1.04124671971973628e-07
1.03905436212605001e-07
1.03688772243675328e-07
1.03473410929268949e-07
1.03251732088261188e-07
1.03029938579203092e-07
1.02807234323655753e-07
1.02504971553552169e-07
)
;
    }
    inertWall
    {
        type            zeroGradient;
    }
    inlet
    {
        type            fixedValue;
        value           uniform 0;
    }
    outlet
    {
        type            zeroGradient;
    }
    defaultFaces
    {
        type            empty;
    }
}


// ************************************************************************* //
