/*--------------------------------*- C++ -*----------------------------------*\
  =========                 |
  \\      /  F ield         | OpenFOAM: The Open Source CFD Toolbox
   \\    /   O peration     | Website:  https://openfoam.org
    \\  /    A nd           | Version:  8
     \\/     M anipulation  |
\*---------------------------------------------------------------------------*/
FoamFile
{
    version     2.0;
    format      ascii;
    class       volScalarField;
    location    "0.5";
    object      CH3COHCH3(s);
}
// * * * * * * * * * * * * * * * * * * * * * * * * * * * * * * * * * * * * * //

dimensions      [0 0 0 0 0 0 0];

internalField   uniform 0;

boundaryField
{
    reactingWall
    {
        type            fixedValue;
        value           nonuniform List<scalar> 
75
(
3.28905352767010753e-12
3.28728335658829044e-12
3.28524318025697317e-12
3.28277900714281819e-12
3.2803132278871851e-12
3.27783144515496567e-12
3.27515979710866149e-12
3.27202558009997481e-12
3.26888301087965398e-12
3.265445387882988e-12
3.26179405632323789e-12
3.25772954075980593e-12
3.25329926446790737e-12
3.24862904297436764e-12
3.24353754197548728e-12
3.23832782065648021e-12
3.23250313263959941e-12
3.22622310292721138e-12
3.21915716078490256e-12
3.2117177706072516e-12
3.20393058955419602e-12
3.19502154297896118e-12
3.18658742117975861e-12
3.17743445545028323e-12
3.16733183091405405e-12
3.15614760420310004e-12
3.14389187409853643e-12
3.13061529847404277e-12
3.11627791806693212e-12
3.1008202762461414e-12
3.08418870807411689e-12
3.06619299055675507e-12
3.06319644623335723e-12
3.06000110812656415e-12
3.05667965404300201e-12
3.05314036352754034e-12
3.04937045352966148e-12
3.04535362619718664e-12
3.04107482928685993e-12
3.03650753944977633e-12
3.03163160896568645e-12
3.02645691291440602e-12
3.02095817307129738e-12
3.01521740358461774e-12
3.00921157520701524e-12
3.00317194629454946e-12
2.99709981389085302e-12
2.99144025900351298e-12
2.98640947480071298e-12
2.9821982539456436e-12
2.97833728175420319e-12
2.97470506786525898e-12
2.97096423558416904e-12
2.96700152508780378e-12
2.96262349267699483e-12
2.95775575412229546e-12
2.9525706335149146e-12
2.94692462155296145e-12
2.94085802470331532e-12
2.93435388803932149e-12
2.92737162122795382e-12
2.91998177064926874e-12
2.9122475359519404e-12
2.9040032279041047e-12
2.89543624649527238e-12
2.88629011310710561e-12
2.87723664035449654e-12
2.86738610963343521e-12
2.85767490451600899e-12
2.84805903001962693e-12
2.83858202049627194e-12
2.82858672828032073e-12
2.81837018077207352e-12
2.80842689303650785e-12
2.79640140780066465e-12
)
;
    }
    inertWall
    {
        type            zeroGradient;
    }
    inlet
    {
        type            fixedValue;
        value           uniform 0;
    }
    outlet
    {
        type            zeroGradient;
    }
    defaultFaces
    {
        type            empty;
    }
}


// ************************************************************************* //
