/*--------------------------------*- C++ -*----------------------------------*\
  =========                 |
  \\      /  F ield         | OpenFOAM: The Open Source CFD Toolbox
   \\    /   O peration     | Website:  https://openfoam.org
    \\  /    A nd           | Version:  8
     \\/     M anipulation  |
\*---------------------------------------------------------------------------*/
FoamFile
{
    version     2.0;
    format      ascii;
    class       volScalarField;
    location    "0.5";
    object      CH3CHOHCH3(s);
}
// * * * * * * * * * * * * * * * * * * * * * * * * * * * * * * * * * * * * * //

dimensions      [0 0 0 0 0 0 0];

internalField   uniform 0;

boundaryField
{
    reactingWall
    {
        type            fixedValue;
        value           nonuniform List<scalar> 
75
(
4.94865741579606162e-07
4.94865729008484731e-07
4.94865714696522128e-07
4.94865698755575725e-07
4.9486568318052532e-07
4.94865668946961758e-07
4.94865655586317951e-07
4.94865642543013451e-07
4.94865629712708302e-07
4.9486561730133019e-07
4.94865605413786476e-07
4.94865593991904418e-07
4.94865582961502037e-07
4.94865572303474291e-07
4.94865562034170717e-07
4.94865552159164262e-07
4.94865542663146077e-07
4.94865533496312529e-07
4.94865524649513546e-07
4.94865516102423512e-07
4.94865507746687433e-07
4.94865499374800024e-07
4.94865490408568124e-07
4.94865479325390296e-07
4.94865462344956801e-07
4.94865430769940855e-07
4.94865366267860043e-07
4.94865234166841251e-07
4.94864970422112624e-07
4.94864449426225514e-07
4.94863579737798981e-07
4.94862553438129614e-07
4.94860791707184508e-07
4.94857867402968265e-07
4.94853036147663587e-07
4.94845064216613326e-07
4.94831960666567185e-07
4.94810569824388601e-07
4.94775957513778567e-07
4.94720505628932503e-07
4.94632612675058817e-07
4.94494883201299982e-07
4.94281684334936121e-07
4.93955967380505192e-07
4.93465281235976674e-07
4.92736840523323294e-07
4.91672207274854747e-07
4.90150617040198271e-07
4.88121416332462451e-07
4.86464699899979999e-07
4.852334832533566e-07
4.84350290847579349e-07
4.83712986414339838e-07
4.83201749463727117e-07
4.82727844900874858e-07
4.82269458152259872e-07
4.81774025663955029e-07
4.81205420374260993e-07
4.80575264413127143e-07
4.79902459248969429e-07
4.79136403398647496e-07
4.78256265159118103e-07
4.77321300596850377e-07
4.76275403282414576e-07
4.75264033881138835e-07
4.73925511613574657e-07
4.72504445759719421e-07
4.71012061907764567e-07
4.69213776160954303e-07
4.67119905685447108e-07
4.6529498893304215e-07
4.63780072578849119e-07
4.61838658417368934e-07
4.59496031920369491e-07
4.56811340508532816e-07
)
;
    }
    inertWall
    {
        type            zeroGradient;
    }
    inlet
    {
        type            fixedValue;
        value           uniform 0;
    }
    outlet
    {
        type            zeroGradient;
    }
    defaultFaces
    {
        type            empty;
    }
}


// ************************************************************************* //
