/*--------------------------------*- C++ -*----------------------------------*\
  =========                 |
  \\      /  F ield         | OpenFOAM: The Open Source CFD Toolbox
   \\    /   O peration     | Website:  https://openfoam.org
    \\  /    A nd           | Version:  8
     \\/     M anipulation  |
\*---------------------------------------------------------------------------*/
FoamFile
{
    version     2.0;
    format      ascii;
    class       volScalarField;
    location    "0.5";
    object      Co(s);
}
// * * * * * * * * * * * * * * * * * * * * * * * * * * * * * * * * * * * * * //

dimensions      [0 0 0 0 0 0 0];

internalField   uniform 0;

boundaryField
{
    reactingWall
    {
        type            fixedValue;
        value           nonuniform List<scalar> 
75
(
0.999999147552191547
0.999999150518898205
0.999999153956343867
0.999999157821281348
0.999999161415236815
0.99999916493452079
0.999999168649112646
0.999999172642535683
0.99999917672669858
0.999999180853801573
0.999999185041066552
0.999999189314690673
0.99999919367225476
0.999999198087031416
0.999999202586508984
0.999999207179402494
0.999999211866610671
0.999999216636193511
0.999999221459309529
0.999999226322757506
0.999999231220160878
0.999999236143064629
0.999999241085668622
0.999999246046921475
0.999999251018145463
0.999999255992197078
0.999999260974338111
0.999999265951286409
0.999999270925996053
0.999999275896188755
0.999999280854949602
0.999999285816067784
0.999999286144888644
0.999999286466199844
0.999999286770356544
0.999999287069627596
0.99999928736627075
0.99999928766427626
0.999999287969645434
0.999999288290864596
0.999999288641218897
0.999999289037686645
0.999999289509021616
0.999999290089149673
0.999999290834718391
0.999999291809282931
0.999999293120668709
0.999999294871171784
0.999999297116579644
0.999999298968858086
0.99999930039802043
0.999999301476690694
0.999999302322256201
0.999999303056825606
0.999999303780827575
0.999999304520151733
0.999999305300435681
0.999999306174969682
0.999999307126596237
0.999999308136689802
0.999999309257572633
0.999999310505366612
0.999999311815344405
0.99999931325767133
0.999999314675829143
0.99999931643100104
0.999999318272794535
0.999999320212223819
0.999999322449545147
0.999999324977294157
0.999999327233482949
0.999999329192299058
0.999999331577834161
0.999999334366433179
0.999999337656561793
)
;
    }
    inertWall
    {
        type            zeroGradient;
    }
    inlet
    {
        type            fixedValue;
        value           uniform 0;
    }
    outlet
    {
        type            zeroGradient;
    }
    defaultFaces
    {
        type            empty;
    }
}


// ************************************************************************* //
