/*--------------------------------*- C++ -*----------------------------------*\
  =========                 |
  \\      /  F ield         | OpenFOAM: The Open Source CFD Toolbox
   \\    /   O peration     | Website:  https://openfoam.org
    \\  /    A nd           | Version:  8
     \\/     M anipulation  |
\*---------------------------------------------------------------------------*/
FoamFile
{
    version     2.0;
    format      ascii;
    class       volScalarField;
    location    "0.5";
    object      gas::lambda;
}
// * * * * * * * * * * * * * * * * * * * * * * * * * * * * * * * * * * * * * //

dimensions      [1 1 -3 -1 0 0 0];

internalField   uniform 0;

boundaryField
{
    reactingWall
    {
        type            calculated;
        value           nonuniform List<scalar> 
75
(
6.90285681172194662e-310
6.90285681172194662e-310
0
0
0
0
0
0
0
0
0
0
0
0
0
0
0
0
0
0
0
0
0
0
0
0
0
0
0
0
0
0
0
0
0
0
0
0
0
0
0
0
0
0
0
0
0
0
0
0
0
0
0
0
0
0
0
0
0
0
0
0
0
0
0
0
0
0
0
0
0
0
0
0
0
)
;
    }
    inertWall
    {
        type            calculated;
        value           uniform 0;
    }
    inlet
    {
        type            calculated;
        value           nonuniform List<scalar> 
20
(
6.90285681169585995e-310
4.68697286964272808e-310
0
4.68697287014904656e-310
2.47032822920623272e-323
2.46992216309947248e-312
0
4.94065645841246544e-324
6.90285746637592321e-310
4.68697287009094444e-310
4.05133829589822166e-322
4.05133829589822166e-322
0
4.68697286996406838e-310
4.68697286996406838e-310
0
2.71615461243554856e-312
4.68697286997394969e-310
4.68697286654236734e-310
0
)
;
    }
    outlet
    {
        type            calculated;
        value           nonuniform List<scalar> 
20
(
6.90285681169585995e-310
4.68697286700797481e-310
0
4.68697286654118159e-310
6.42285339593620507e-323
1.01819720682178572e+277
3.33930687347940337e+160
5.30387580506838521e+180
6.90285746637592321e-310
4.68697286963877556e-310
3.75489890839347374e-322
3.75489890839347374e-322
0
4.68697286706449592e-310
4.68697286706449592e-310
2.86523568313312026e+161
2.71615461243554856e-312
4.68697286969411091e-310
6.9532304528507321e-310
0
)
;
    }
    defaultFaces
    {
        type            empty;
    }
}


// ************************************************************************* //
