/*--------------------------------*- C++ -*----------------------------------*\
  =========                 |
  \\      /  F ield         | OpenFOAM: The Open Source CFD Toolbox
   \\    /   O peration     | Website:  https://openfoam.org
    \\  /    A nd           | Version:  8
     \\/     M anipulation  |
\*---------------------------------------------------------------------------*/
FoamFile
{
    version     2.0;
    format      ascii;
    class       volScalarField;
    location    "0.5";
    object      gas::mu;
}
// * * * * * * * * * * * * * * * * * * * * * * * * * * * * * * * * * * * * * //

dimensions      [1 -1 -1 0 0 0 0];

internalField   nonuniform List<scalar> 
1800
(
3.89398395867285039e-05
3.89398395867284971e-05
3.89398395867285107e-05
3.89398395867285039e-05
3.89398395867285039e-05
3.89398395867285107e-05
3.89398395867285107e-05
3.89398395867285107e-05
3.89398395867284971e-05
3.89398395867284971e-05
3.89398395867285107e-05
3.89398395867284971e-05
3.89398395867285107e-05
3.89398395867284971e-05
3.89398395867284971e-05
3.89398395867285039e-05
3.89398395867285039e-05
3.89398395867285107e-05
3.89398395867285107e-05
3.89398395867285039e-05
3.89398395867285107e-05
3.89398395867285039e-05
3.89398395867285039e-05
3.89398395867285107e-05
3.89398395867285039e-05
3.89398395867285107e-05
3.89398395867285039e-05
3.89398395867285107e-05
3.89398395867285107e-05
3.89398395867285039e-05
3.89398395867285107e-05
3.89398395867285107e-05
3.89398395867285039e-05
3.89398395867285039e-05
3.89398395867285107e-05
3.89398395867285107e-05
3.89398395867285107e-05
3.89398395867285107e-05
3.89398395867285039e-05
3.89398395867285107e-05
3.89398395867285107e-05
3.89398395867285107e-05
3.89398395867285039e-05
3.89398395867285039e-05
3.89398395867285039e-05
3.89398395867285039e-05
3.89398395867285107e-05
3.89398395867285107e-05
3.89398395867285107e-05
3.89398395867285107e-05
3.89398395867285107e-05
3.89398395867285107e-05
3.89398395867285039e-05
3.89398395867285107e-05
3.89398395867285107e-05
3.89398395867285039e-05
3.89398395867284971e-05
3.89398395867284971e-05
3.89398395867285039e-05
3.89398395867285039e-05
3.89398395867285107e-05
3.89398395867285039e-05
3.89398395867285039e-05
3.89398395867285039e-05
3.89398395867285107e-05
3.89398395867285107e-05
3.89398395867285039e-05
3.89398395867285107e-05
3.89398395867284971e-05
3.89398395867285039e-05
3.89398395867285039e-05
3.89398395867284971e-05
3.89398395867284971e-05
3.89398395867285039e-05
3.89398395867285107e-05
3.89398395867285107e-05
3.89398395867285039e-05
3.89398395867285107e-05
3.89398395867285039e-05
3.89398395867285107e-05
3.89398395867285107e-05
3.89398395867285107e-05
3.89398395867284971e-05
3.89398395867284971e-05
3.89398395867284971e-05
3.89398395867284971e-05
3.89398395867285107e-05
3.89398395867285107e-05
3.89398395867285039e-05
3.89398395867285107e-05
3.89398395867285039e-05
3.89398395867285107e-05
3.89398395867285039e-05
3.89398395867285039e-05
3.89398395867285107e-05
3.89398395867284971e-05
3.89398395867285039e-05
3.89398395867285039e-05
3.89398395867285039e-05
3.89398395867285107e-05
3.89398395867285107e-05
3.89398395867285107e-05
3.89398395867285039e-05
3.89398395867285107e-05
3.89398395867285107e-05
3.89398395867285039e-05
3.89398395867285039e-05
3.89398395867285107e-05
3.89398395867285039e-05
3.89398395867285107e-05
3.89398395867285107e-05
3.89398395867284971e-05
3.89398395867284971e-05
3.89398395867284971e-05
3.89398395867284971e-05
3.89398395867284904e-05
3.89398395867284904e-05
3.89398395867284971e-05
3.89398395867284971e-05
3.89398395867284971e-05
3.89398395867285039e-05
3.89398395867285039e-05
3.89398395867285107e-05
3.89398395867285107e-05
3.89398395867285175e-05
3.89398395867285107e-05
3.89398395867285107e-05
3.89398395867285107e-05
3.89398395867285107e-05
3.89398395867285039e-05
3.89398395867285107e-05
3.89398395867285039e-05
3.89398395867284971e-05
3.89398395867284971e-05
3.89398395867284904e-05
3.89398395867285107e-05
3.89398395867285107e-05
3.89398395867285039e-05
3.89398395867285107e-05
3.89398395867285039e-05
3.89398395867285107e-05
3.89398395867285039e-05
3.89398395867285107e-05
3.89398395867285039e-05
3.89398395867285039e-05
3.89398395867284971e-05
3.89398395867284971e-05
3.89398395867284971e-05
3.89398395867284904e-05
3.89398395867284971e-05
3.89398395867285107e-05
3.89398395867285107e-05
3.89398395867285107e-05
3.89398395867285039e-05
3.89398395867285107e-05
3.89398395867285107e-05
3.89398395867285039e-05
3.89398395867284971e-05
3.89398395867285107e-05
3.89398395867285107e-05
3.89398395867285107e-05
3.89398395867285107e-05
3.89398395867285039e-05
3.89398395867285039e-05
3.89398395867285039e-05
3.89398395867285107e-05
3.89398395867285107e-05
3.89398395867285039e-05
3.89398395867285107e-05
3.89398395867285039e-05
3.89398395867285107e-05
3.89398395867285107e-05
3.89398395867285039e-05
3.89398395867284971e-05
3.89398395867284971e-05
3.89398395867285039e-05
3.89398395867284971e-05
3.89398395867285039e-05
3.89398395867284971e-05
3.89398395867285039e-05
3.89398395867285107e-05
3.89398395867285107e-05
3.89398395867285107e-05
3.89398395867285107e-05
3.89398395867285039e-05
3.89398395867285107e-05
3.89398395867285039e-05
3.89398395867285039e-05
3.89398395867285039e-05
3.89398395867285039e-05
3.89398395867285039e-05
3.89398395867285039e-05
3.89398395867285039e-05
3.89398395867285107e-05
3.89398395867285107e-05
3.89398395867285107e-05
3.89398395867285107e-05
3.89398395867285107e-05
3.89398395867285039e-05
3.89398395867285039e-05
3.89398395867285107e-05
3.89398395867285107e-05
3.89398395867285107e-05
3.89398395867285107e-05
3.89398395867285107e-05
3.89398395867285107e-05
3.89398395867285039e-05
3.89398395867285107e-05
3.89398395867285039e-05
3.89398395867285039e-05
3.89398395867285039e-05
3.89398395867285039e-05
3.89398395867285107e-05
3.89398395867285039e-05
3.89398395867285039e-05
3.89398395867285039e-05
3.89398395867285107e-05
3.89398395867285039e-05
3.89398395867285039e-05
3.89398395867285107e-05
3.89398395867285107e-05
3.89398395867285039e-05
3.89398395867285107e-05
3.89398395867285039e-05
3.89398395867285039e-05
3.89398395867285039e-05
3.89398395867285039e-05
3.89398395867285039e-05
3.89398395867285039e-05
3.89398395867285107e-05
3.89398395867285107e-05
3.89398395867285039e-05
3.89398395867285039e-05
3.89398395867285107e-05
3.89398395867285107e-05
3.89398395867285039e-05
3.89398395867285107e-05
3.89398395867285039e-05
3.89398395867285039e-05
3.89398395867285107e-05
3.89398395867285039e-05
3.89398395867285107e-05
3.89398395867285039e-05
3.89398395867285039e-05
3.89398395867285107e-05
3.89398395867285107e-05
3.89398395867285107e-05
3.89398395867285107e-05
3.89398395867285107e-05
3.89398395867284971e-05
3.89398395867285039e-05
3.89398395867285039e-05
3.89398395867284971e-05
3.89398395867284971e-05
3.89398395867285107e-05
3.89398395867285039e-05
3.89398395867285039e-05
3.89398395867284971e-05
3.89398395867284971e-05
3.89398395867285039e-05
3.89398395867284971e-05
3.89398395867285039e-05
3.89398395867285039e-05
3.89398395867284971e-05
3.89398395867284904e-05
3.89398395867284971e-05
3.89398395867284904e-05
3.89398395867284971e-05
3.89398395867285039e-05
3.89398395867285039e-05
3.89398395867285107e-05
3.89398395867285039e-05
3.89398395867285039e-05
3.89398395867285107e-05
3.89398395867285107e-05
3.89398395867285039e-05
3.89398395867285039e-05
3.89398395867285107e-05
3.89398395867285107e-05
3.89398395867285107e-05
3.89398395867285039e-05
3.89398395867285039e-05
3.89398395867285039e-05
3.89398395867284971e-05
3.89398395867286801e-05
3.89398395867285039e-05
3.89398395867285107e-05
3.89398395867285107e-05
3.89398395867285039e-05
3.89398395867285039e-05
3.89398395867285107e-05
3.89398395867285039e-05
3.89398395867285039e-05
3.89398395867285107e-05
3.89398395867285107e-05
3.89398395867284971e-05
3.89398395867284971e-05
3.89398395867284971e-05
3.89398395867285446e-05
3.89398395867317497e-05
3.89398395867284971e-05
3.89398395867284904e-05
3.89398395867284971e-05
3.89398395867284971e-05
3.89398395867284971e-05
3.89398395867285107e-05
3.89398395867285039e-05
3.89398395867285039e-05
3.89398395867285107e-05
3.89398395867285107e-05
3.89398395867285107e-05
3.89398395867285107e-05
3.89398395867285039e-05
3.89398395867285513e-05
3.89398395867287343e-05
3.89398395867296559e-05
3.89398395867337487e-05
3.89398395867506284e-05
3.89398395868156263e-05
3.89398395870485536e-05
3.89398395878252693e-05
3.89398395902330112e-05
3.89398395971644513e-05
3.89398396156653517e-05
3.89398396613295619e-05
3.89398397651177964e-05
3.89398399806401257e-05
3.89398404093095141e-05
3.89398412484547754e-05
3.89398428623526945e-05
3.89398459123938711e-05
3.89398515790131039e-05
3.89398619330291019e-05
3.89398805447635428e-05
3.89399134627234792e-05
3.89399707525829201e-05
3.89400688630622081e-05
3.8940234175737683e-05
3.8940508191428646e-05
3.89409548858076282e-05
3.89416707957040295e-05
3.89427983291945341e-05
3.89445425976517239e-05
3.89471918104824396e-05
3.89511412690438062e-05
3.89569220752425735e-05
3.89652398755014714e-05
3.89770446518624447e-05
3.89930975302666904e-05
3.90154537711393009e-05
3.90422830567932515e-05
3.90751995019495007e-05
3.9110963165515426e-05
3.91525669775782839e-05
3.91951323236039377e-05
3.92418574365441082e-05
3.92878307923691904e-05
3.93364144774860011e-05
3.93816049880005073e-05
3.9427621156064356e-05
3.94699732307706835e-05
3.95111980245665677e-05
3.95496967067837535e-05
3.95870659739115812e-05
3.96220226581862076e-05
3.96558898716774225e-05
3.96875081515037529e-05
3.97195086464717609e-05
3.9749436832910551e-05
3.97817544060950523e-05
3.98111811657741028e-05
3.9841479931291269e-05
3.98707421831429084e-05
3.99027024524358306e-05
3.99456079160264558e-05
3.89398395867285039e-05
3.89398395867284971e-05
3.89398395867284971e-05
3.89398395867284971e-05
3.89398395867284971e-05
3.89398395867284971e-05
3.89398395867284971e-05
3.89398395867284971e-05
3.89398395867284971e-05
3.89398395867284904e-05
3.89398395867284971e-05
3.89398395867284971e-05
3.89398395867284971e-05
3.89398395867284971e-05
3.89398395867285107e-05
3.89398395867285649e-05
3.8939839586728775e-05
3.89398395867296965e-05
3.89398395867332066e-05
3.89398395867458444e-05
3.89398395867883586e-05
3.89398395869218375e-05
3.89398395873127601e-05
3.89398395883798251e-05
3.89398395910901612e-05
3.89398395974754818e-05
3.8939839611252432e-05
3.89398396387764288e-05
3.89398396928386184e-05
3.89398397970665375e-05
3.89398399944959991e-05
3.89398403623298413e-05
3.89398410369331724e-05
3.89398422554404215e-05
3.89398444237889707e-05
3.89398482259284144e-05
3.89398547957893958e-05
3.8939865982676804e-05
3.89398847521962239e-05
3.89399157782975219e-05
3.89399662964918725e-05
3.89400473019783369e-05
3.89401751873116956e-05
3.89403739223057331e-05
3.89406778935125268e-05
3.89411356000810756e-05
3.89418148974240337e-05
3.89428132970233429e-05
3.89442447527021466e-05
3.89463438774582905e-05
3.89490759174253707e-05
3.89530672012985602e-05
3.89574501268004841e-05
3.89636634664514622e-05
3.89702390891514866e-05
3.89794896059039971e-05
3.89880818745612283e-05
3.89998799059895253e-05
3.90113580166547911e-05
3.90250640734569689e-05
3.90386457029482916e-05
3.90558935020812197e-05
3.9071644320660193e-05
3.90880624729511718e-05
3.91052183122879242e-05
3.9126025361333921e-05
3.91426584052639899e-05
3.91606582714331287e-05
3.91828803039453649e-05
3.92017450821770402e-05
3.92203583684190945e-05
3.92438221265788948e-05
3.92666770327388721e-05
3.9291094270784579e-05
3.93191154207423683e-05
3.89398395867285107e-05
3.89398395867285039e-05
3.89398395867285107e-05
3.89398395867285107e-05
3.89398395867285107e-05
3.89398395867285107e-05
3.89398395867285107e-05
3.89398395867285107e-05
3.89398395867285107e-05
3.89398395867285039e-05
3.89398395867284971e-05
3.89398395867285107e-05
3.89398395867285107e-05
3.89398395867285039e-05
3.89398395867285107e-05
3.89398395867285039e-05
3.89398395867285175e-05
3.8939839586728592e-05
3.89398395867288292e-05
3.89398395867297033e-05
3.89398395867326307e-05
3.8939839586741887e-05
3.89398395867692428e-05
3.8939839586844832e-05
3.89398395870398529e-05
3.89398395875083773e-05
3.89398395885458707e-05
3.89398395906298021e-05
3.89398395947299092e-05
3.89398396026427283e-05
3.89398396176370614e-05
3.89398396455761654e-05
3.89398396968250671e-05
3.89398397894406118e-05
3.89398399544189808e-05
3.89398402441831041e-05
3.89398407460732798e-05
3.89398416034050093e-05
3.89398430477236459e-05
3.89398454472416149e-05
3.89398493780866036e-05
3.89398557268835055e-05
3.8939865835315914e-05
3.89398816998749904e-05
3.89399062440898633e-05
3.89399436898333975e-05
3.89400000782998983e-05
3.89400840412537093e-05
3.89402079222179526e-05
3.89403897523860285e-05
3.89406396524103474e-05
3.8940999667441677e-05
3.89414566518808992e-05
3.89421281713910294e-05
3.8942864191423982e-05
3.89439275413963875e-05
3.89450400602663299e-05
3.89465919365771432e-05
3.89482008029637145e-05
3.89501839932928083e-05
3.89526703367572895e-05
3.89553081162972219e-05
3.8958080338280884e-05
3.89618702961517767e-05
3.89653717279993177e-05
3.89690613304353515e-05
3.897405904627952e-05
3.89783778670301786e-05
3.89834692690418068e-05
3.89893443380588418e-05
3.899455197326002e-05
3.90014380493772635e-05
3.90085013779472399e-05
3.901505542911947e-05
3.90228353402623075e-05
3.89398395867285039e-05
3.89398395867285107e-05
3.89398395867285107e-05
3.89398395867285107e-05
3.89398395867285107e-05
3.89398395867285107e-05
3.89398395867285107e-05
3.89398395867285039e-05
3.89398395867285107e-05
3.89398395867285107e-05
3.89398395867285107e-05
3.89398395867285107e-05
3.89398395867285175e-05
3.89398395867285175e-05
3.89398395867285175e-05
3.89398395867285107e-05
3.89398395867285175e-05
3.89398395867285175e-05
3.89398395867285378e-05
3.8939839586728592e-05
3.89398395867287614e-05
3.89398395867293306e-05
3.8939839586731045e-05
3.89398395867357884e-05
3.89398395867482296e-05
3.89398395867787296e-05
3.89398395868479288e-05
3.89398395869885837e-05
3.89398395872657193e-05
3.89398395878009696e-05
3.89398395888153695e-05
3.89398395907051203e-05
3.8939839594170637e-05
3.89398396004333208e-05
3.89398396115941183e-05
3.89398396312177439e-05
3.8939839665269783e-05
3.89398397235955299e-05
3.89398398222159147e-05
3.89398399868310963e-05
3.89398402580741531e-05
3.89398406992492985e-05
3.89398414075282269e-05
3.89398425298759658e-05
3.89398442853641902e-05
3.89398469960696364e-05
3.89398511295338439e-05
3.89398573565126628e-05
3.89398666252646614e-05
3.89398802543656559e-05
3.89398999965672767e-05
3.89399285352076877e-05
3.89399687514045901e-05
3.89400282394319346e-05
3.89400979524177391e-05
3.89401975105661669e-05
3.89403154711497152e-05
3.89404824792723175e-05
3.8940672026221492e-05
3.89408948540503869e-05
3.89411951100128819e-05
3.89415837767585066e-05
3.89419395429379555e-05
3.89424183925629058e-05
3.8943073494900693e-05
3.89436165958993011e-05
3.89443373881934993e-05
3.89451542765003957e-05
3.89460530123673463e-05
3.89471128334008309e-05
3.89481372386902341e-05
3.89493957843436829e-05
3.89507746565753211e-05
3.89524289465590067e-05
3.89544695591826064e-05
3.89398395867284971e-05
3.89398395867284971e-05
3.89398395867285039e-05
3.89398395867285107e-05
3.89398395867285039e-05
3.89398395867285107e-05
3.89398395867285107e-05
3.89398395867285107e-05
3.89398395867285107e-05
3.89398395867285039e-05
3.89398395867285107e-05
3.89398395867285107e-05
3.89398395867285107e-05
3.89398395867285039e-05
3.89398395867285039e-05
3.89398395867285039e-05
3.89398395867285107e-05
3.89398395867285039e-05
3.89398395867285039e-05
3.89398395867285107e-05
3.89398395867285175e-05
3.89398395867285649e-05
3.89398395867286598e-05
3.89398395867289647e-05
3.8939839586729744e-05
3.89398395867317159e-05
3.8939839586736256e-05
3.89398395867456614e-05
3.89398395867642487e-05
3.89398395868002307e-05
3.89398395868684947e-05
3.89398395869958207e-05
3.89398395872294595e-05
3.89398395876519663e-05
3.89398395884055546e-05
3.89398395897321098e-05
3.89398395920377877e-05
3.89398395959958101e-05
3.89398396027076246e-05
3.89398396139517295e-05
3.89398396325620123e-05
3.89398396629939884e-05
3.8939839712159074e-05
3.89398397906354975e-05
3.89398399144009024e-05
3.89398401072807738e-05
3.89398404043712375e-05
3.89398408567715549e-05
3.89398415380106438e-05
3.89398425525213577e-05
3.89398440461799345e-05
3.89398462273468231e-05
3.89398493888415504e-05
3.89398539356816683e-05
3.89398599892607948e-05
3.89398682178347856e-05
3.89398794248550895e-05
3.89398951202294381e-05
3.89399144977099068e-05
3.89399366372919175e-05
3.89399675617783659e-05
3.89400115386586833e-05
3.89400528773302778e-05
3.89401085964309097e-05
3.89401866736998573e-05
3.89402645131560311e-05
3.89403506337785527e-05
3.89404674331507626e-05
3.8940605081512452e-05
3.89407502643854253e-05
3.89409067069371349e-05
3.89411176697552792e-05
3.89413327332042283e-05
3.8941589478089861e-05
3.89419482874449999e-05
3.89398395867285107e-05
3.89398395867285107e-05
3.89398395867285107e-05
3.89398395867285039e-05
3.89398395867285107e-05
3.89398395867285039e-05
3.89398395867285107e-05
3.89398395867285039e-05
3.89398395867285107e-05
3.89398395867285039e-05
3.89398395867285107e-05
3.89398395867285175e-05
3.89398395867285107e-05
3.89398395867285107e-05
3.89398395867285107e-05
3.89398395867285107e-05
3.89398395867285107e-05
3.89398395867285175e-05
3.89398395867285175e-05
3.89398395867285175e-05
3.89398395867285107e-05
3.89398395867285175e-05
3.89398395867285242e-05
3.89398395867285378e-05
3.8939839586728592e-05
3.89398395867287072e-05
3.89398395867289918e-05
3.89398395867295949e-05
3.89398395867307875e-05
3.89398395867331118e-05
3.89398395867375299e-05
3.89398395867457902e-05
3.89398395867609758e-05
3.89398395867884942e-05
3.89398395868376289e-05
3.89398395869242566e-05
3.89398395870751369e-05
3.89398395873347762e-05
3.8939839587776365e-05
3.89398395885188063e-05
3.89398395897528655e-05
3.89398395917809673e-05
3.89398395950765354e-05
3.89398396003717449e-05
3.89398396087851944e-05
3.89398396220054475e-05
3.8939839642551614e-05
3.89398396741390311e-05
3.89398397221852945e-05
3.89398397945023248e-05
3.89398399022343244e-05
3.89398400611583865e-05
3.89398402932621785e-05
3.89398406283379567e-05
3.89398411035739165e-05
3.89398417685449447e-05
3.89398427021706055e-05
3.89398440212655446e-05
3.89398457240986435e-05
3.89398477774942237e-05
3.89398506875231987e-05
3.89398548994324286e-05
3.89398591577406596e-05
3.89398649470354641e-05
3.89398729871966523e-05
3.89398824657990306e-05
3.89398918787036295e-05
3.89399047812194636e-05
3.89399227230039624e-05
3.8939940002533888e-05
3.89399599307801902e-05
3.89399867895374671e-05
3.89400168461968583e-05
3.8940053829693317e-05
3.89401099375613635e-05
3.89398395867285107e-05
3.89398395867285039e-05
3.89398395867284971e-05
3.89398395867284971e-05
3.89398395867285039e-05
3.89398395867285107e-05
3.89398395867285107e-05
3.89398395867284971e-05
3.89398395867285039e-05
3.89398395867285039e-05
3.89398395867285039e-05
3.89398395867285107e-05
3.89398395867285107e-05
3.89398395867285107e-05
3.89398395867285107e-05
3.89398395867285039e-05
3.89398395867285107e-05
3.89398395867285107e-05
3.89398395867285039e-05
3.89398395867285107e-05
3.89398395867285039e-05
3.89398395867285039e-05
3.89398395867284971e-05
3.89398395867285039e-05
3.89398395867285107e-05
3.89398395867285107e-05
3.89398395867285378e-05
3.89398395867285717e-05
3.89398395867286462e-05
3.89398395867288021e-05
3.89398395867290663e-05
3.89398395867295881e-05
3.893983958673053e-05
3.89398395867322715e-05
3.8939839586735375e-05
3.89398395867408435e-05
3.89398395867504116e-05
3.89398395867669185e-05
3.89398395867950739e-05
3.89398395868425959e-05
3.8939839586921912e-05
3.89398395870528769e-05
3.89398395872668509e-05
3.8939839587612725e-05
3.89398395881659663e-05
3.89398395890417035e-05
3.89398395904136461e-05
3.89398395925410269e-05
3.89398395958066371e-05
3.89398396007696064e-05
3.89398396082384245e-05
3.89398396193705516e-05
3.89398396358031128e-05
3.89398396598096934e-05
3.8939839694467273e-05
3.89398397440795851e-05
3.89398398148169058e-05
3.89398399148481968e-05
3.89398400506617374e-05
3.89398402278994039e-05
3.89398404771389503e-05
3.89398408368202834e-05
3.89398412289912593e-05
3.89398417703940448e-05
3.89398425213429558e-05
3.89398434760517749e-05
3.89398444422950414e-05
3.89398457786732744e-05
3.8939847668195308e-05
3.89398496036939986e-05
3.89398518504194889e-05
3.8939854820956039e-05
3.89398586246568761e-05
3.8939863074643669e-05
3.89398700693165356e-05
3.89398395867284904e-05
3.89398395867284904e-05
3.89398395867284971e-05
3.89398395867284971e-05
3.89398395867284971e-05
3.89398395867284971e-05
3.89398395867284971e-05
3.89398395867284971e-05
3.89398395867284971e-05
3.89398395867284971e-05
3.89398395867284971e-05
3.89398395867285039e-05
3.89398395867284971e-05
3.89398395867284971e-05
3.89398395867285039e-05
3.89398395867285107e-05
3.89398395867285039e-05
3.89398395867285039e-05
3.89398395867285107e-05
3.89398395867284971e-05
3.89398395867284971e-05
3.89398395867284971e-05
3.89398395867284971e-05
3.89398395867284971e-05
3.89398395867284904e-05
3.89398395867284971e-05
3.89398395867285107e-05
3.89398395867285039e-05
3.89398395867285175e-05
3.89398395867285175e-05
3.89398395867285378e-05
3.89398395867285784e-05
3.89398395867286327e-05
3.89398395867287411e-05
3.89398395867289173e-05
3.89398395867292628e-05
3.89398395867298388e-05
3.89398395867308417e-05
3.89398395867325764e-05
3.89398395867355106e-05
3.89398395867404166e-05
3.89398395867485549e-05
3.89398395867619177e-05
3.89398395867836559e-05
3.8939839586818635e-05
3.89398395868743765e-05
3.89398395869623595e-05
3.89398395870998567e-05
3.89398395873127059e-05
3.89398395876390508e-05
3.89398395881347683e-05
3.8939839588880713e-05
3.89398395899927385e-05
3.89398395916346339e-05
3.89398395940349356e-05
3.89398395975107658e-05
3.89398396025008198e-05
3.89398396095984274e-05
3.8939839619560348e-05
3.89398396334148729e-05
3.89398396527698535e-05
3.89398396804250659e-05
3.89398397134651175e-05
3.89398397596639139e-05
3.89398398242337166e-05
3.8939839905914459e-05
3.89398399965625426e-05
3.89398401218460881e-05
3.89398402978427159e-05
3.89398404904565647e-05
3.89398407081018296e-05
3.89398410032999878e-05
3.89398414120802023e-05
3.89398419184890549e-05
3.89398427315102683e-05
3.89398395867284971e-05
3.89398395867284971e-05
3.89398395867284904e-05
3.89398395867284971e-05
3.89398395867284971e-05
3.89398395867284971e-05
3.89398395867284971e-05
3.89398395867284971e-05
3.89398395867284971e-05
3.89398395867284971e-05
3.89398395867284971e-05
3.89398395867284971e-05
3.89398395867285039e-05
3.89398395867284971e-05
3.89398395867285039e-05
3.89398395867285039e-05
3.89398395867285039e-05
3.89398395867285039e-05
3.89398395867284971e-05
3.89398395867284971e-05
3.89398395867284971e-05
3.89398395867285039e-05
3.89398395867285039e-05
3.89398395867285039e-05
3.89398395867285039e-05
3.89398395867285039e-05
3.89398395867285107e-05
3.89398395867285107e-05
3.89398395867285107e-05
3.89398395867285107e-05
3.89398395867285107e-05
3.89398395867285039e-05
3.89398395867285107e-05
3.89398395867285175e-05
3.89398395867285378e-05
3.89398395867285581e-05
3.89398395867285852e-05
3.89398395867286462e-05
3.89398395867287479e-05
3.89398395867289173e-05
3.89398395867292086e-05
3.89398395867296965e-05
3.89398395867305097e-05
3.89398395867318175e-05
3.89398395867339385e-05
3.89398395867373537e-05
3.89398395867427544e-05
3.89398395867512722e-05
3.89398395867645604e-05
3.89398395867850993e-05
3.8939839586816575e-05
3.89398395868643544e-05
3.8939839586936237e-05
3.89398395870434782e-05
3.89398395872019547e-05
3.89398395874340756e-05
3.89398395877711473e-05
3.89398395882561922e-05
3.89398395889469103e-05
3.89398395899215132e-05
3.89398395912877841e-05
3.89398395931945366e-05
3.89398395957976789e-05
3.89398395994051719e-05
3.8939839604445167e-05
3.89398396105729693e-05
3.89398396184959596e-05
3.89398396292616264e-05
3.89398396442809097e-05
3.8939839660785943e-05
3.89398396808824705e-05
3.89398397082524496e-05
3.89398397466959412e-05
3.89398397964788932e-05
3.89398398781414345e-05
3.89398395867284971e-05
3.89398395867284971e-05
3.89398395867284971e-05
3.89398395867285039e-05
3.89398395867284971e-05
3.89398395867284971e-05
3.89398395867284971e-05
3.89398395867284971e-05
3.89398395867284971e-05
3.89398395867284971e-05
3.89398395867285107e-05
3.89398395867285039e-05
3.89398395867285107e-05
3.89398395867285107e-05
3.89398395867285107e-05
3.89398395867285107e-05
3.89398395867285107e-05
3.89398395867285107e-05
3.89398395867285107e-05
3.89398395867285107e-05
3.89398395867285107e-05
3.89398395867285107e-05
3.89398395867285107e-05
3.89398395867285039e-05
3.89398395867285039e-05
3.89398395867285107e-05
3.89398395867285107e-05
3.89398395867285039e-05
3.89398395867285039e-05
3.89398395867285039e-05
3.89398395867285107e-05
3.89398395867285107e-05
3.89398395867285039e-05
3.89398395867285107e-05
3.89398395867285039e-05
3.89398395867285107e-05
3.89398395867285175e-05
3.89398395867285107e-05
3.89398395867285242e-05
3.89398395867285378e-05
3.89398395867285513e-05
3.89398395867285784e-05
3.89398395867286259e-05
3.89398395867287072e-05
3.89398395867288427e-05
3.89398395867290392e-05
3.89398395867293645e-05
3.89398395867298795e-05
3.89398395867306926e-05
3.89398395867319598e-05
3.89398395867339114e-05
3.89398395867369065e-05
3.89398395867414466e-05
3.89398395867482838e-05
3.89398395867584753e-05
3.89398395867735593e-05
3.89398395867956702e-05
3.89398395868278236e-05
3.893983958687418e-05
3.89398395869404451e-05
3.89398395870344183e-05
3.89398395871665893e-05
3.89398395873505107e-05
3.89398395876054066e-05
3.89398395879584635e-05
3.89398395884228747e-05
3.89398395890481612e-05
3.89398395898924904e-05
3.89398395910581636e-05
3.89398395923692283e-05
3.89398395941292002e-05
3.89398395965326731e-05
3.89398395997948748e-05
3.89398396044774627e-05
3.893983961229557e-05
3.89398395867285039e-05
3.89398395867285107e-05
3.89398395867285107e-05
3.89398395867285107e-05
3.89398395867285107e-05
3.89398395867285107e-05
3.89398395867285107e-05
3.89398395867285107e-05
3.89398395867285107e-05
3.89398395867285107e-05
3.89398395867285039e-05
3.89398395867285107e-05
3.89398395867285107e-05
3.89398395867285107e-05
3.89398395867285039e-05
3.89398395867285107e-05
3.89398395867285039e-05
3.89398395867285107e-05
3.89398395867285039e-05
3.89398395867285107e-05
3.89398395867285107e-05
3.89398395867285107e-05
3.89398395867285107e-05
3.89398395867285039e-05
3.89398395867285107e-05
3.89398395867285039e-05
3.89398395867285039e-05
3.89398395867285107e-05
3.89398395867285107e-05
3.89398395867285107e-05
3.89398395867285175e-05
3.89398395867285175e-05
3.89398395867285107e-05
3.89398395867285107e-05
3.89398395867285175e-05
3.89398395867285175e-05
3.89398395867285175e-05
3.89398395867285175e-05
3.89398395867285242e-05
3.89398395867285242e-05
3.89398395867285378e-05
3.89398395867285446e-05
3.89398395867285717e-05
3.89398395867286056e-05
3.89398395867286665e-05
3.8939839586728775e-05
3.89398395867289376e-05
3.89398395867291883e-05
3.89398395867295746e-05
3.89398395867301776e-05
3.89398395867310721e-05
3.89398395867324274e-05
3.89398395867344535e-05
3.8939839586737435e-05
3.89398395867417922e-05
3.89398395867481076e-05
3.89398395867571675e-05
3.89398395867700085e-05
3.89398395867880808e-05
3.89398395868132004e-05
3.89398395868478339e-05
3.89398395868952135e-05
3.89398395869595542e-05
3.89398395870465004e-05
3.89398395871635671e-05
3.89398395873202547e-05
3.89398395875269307e-05
3.89398395878048998e-05
3.8939839588147013e-05
3.89398395885938128e-05
3.8939839589195816e-05
3.89398395900117527e-05
3.89398395908788366e-05
3.89398395921844938e-05
3.89398395943912654e-05
3.89398395867285107e-05
3.89398395867285039e-05
3.89398395867284971e-05
3.89398395867285039e-05
3.89398395867285107e-05
3.89398395867285039e-05
3.89398395867285039e-05
3.89398395867285107e-05
3.89398395867285039e-05
3.89398395867285039e-05
3.89398395867285039e-05
3.89398395867285107e-05
3.89398395867285107e-05
3.89398395867285175e-05
3.89398395867285175e-05
3.89398395867285175e-05
3.89398395867285107e-05
3.89398395867285175e-05
3.89398395867285107e-05
3.89398395867285107e-05
3.89398395867285039e-05
3.89398395867285107e-05
3.89398395867285107e-05
3.89398395867285175e-05
3.89398395867285107e-05
3.89398395867285107e-05
3.89398395867285107e-05
3.89398395867285107e-05
3.89398395867285039e-05
3.89398395867285039e-05
3.89398395867285039e-05
3.89398395867285039e-05
3.89398395867285039e-05
3.89398395867285107e-05
3.89398395867285175e-05
3.89398395867285175e-05
3.89398395867285446e-05
3.89398395867285784e-05
3.89398395867286327e-05
3.89398395867287207e-05
3.8939839586728863e-05
3.89398395867290934e-05
3.89398395867294729e-05
3.89398395867300963e-05
3.89398395867310992e-05
3.89398395867326713e-05
3.89398395867351243e-05
3.89398395867389258e-05
3.89398395867447398e-05
3.89398395867535354e-05
3.89398395867667017e-05
3.89398395867862512e-05
3.89398395868149894e-05
3.89398395868568328e-05
3.89398395869171415e-05
3.89398395870030239e-05
3.89398395871237972e-05
3.89398395872917605e-05
3.89398395875233935e-05
3.89398395878348645e-05
3.89398395882545523e-05
3.89398395888167112e-05
3.89398395895479513e-05
3.89398395905232386e-05
3.89398395918328125e-05
3.89398395935210644e-05
3.89398395955784329e-05
3.89398395983296975e-05
3.89398396017503283e-05
3.89398396055567995e-05
3.89398396105417307e-05
3.89398396169792827e-05
3.89398396246119779e-05
3.89398396352537543e-05
3.89398396522899789e-05
3.89398395867285107e-05
3.89398395867285107e-05
3.89398395867285039e-05
3.89398395867284971e-05
3.89398395867284971e-05
3.89398395867284971e-05
3.89398395867285039e-05
3.89398395867285039e-05
3.89398395867285039e-05
3.89398395867285039e-05
3.89398395867285107e-05
3.89398395867285107e-05
3.89398395867285107e-05
3.89398395867285175e-05
3.89398395867285175e-05
3.89398395867285175e-05
3.89398395867285175e-05
3.89398395867285175e-05
3.89398395867285175e-05
3.89398395867285175e-05
3.89398395867285175e-05
3.89398395867285175e-05
3.89398395867285175e-05