/*--------------------------------*- C++ -*----------------------------------*\
  =========                 |
  \\      /  F ield         | OpenFOAM: The Open Source CFD Toolbox
   \\    /   O peration     | Website:  https://openfoam.org
    \\  /    A nd           | Version:  8
     \\/     M anipulation  |
\*---------------------------------------------------------------------------*/
FoamFile
{
    version     2.0;
    format      ascii;
    class       volScalarField;
    location    "0.5";
    object      H(s);
}
// * * * * * * * * * * * * * * * * * * * * * * * * * * * * * * * * * * * * * //

dimensions      [0 0 0 0 0 0 0];

internalField   uniform 0;

boundaryField
{
    reactingWall
    {
        type            fixedValue;
        value           nonuniform List<scalar> 
75
(
1.79475499568408706e-07
1.77981128539922648e-07
1.762496028281904e-07
1.74302986221950476e-07
1.72493069264933688e-07
1.70720825325645983e-07
1.68850282486396994e-07
1.66839636249128226e-07
1.64783202628717e-07
1.62705436524210473e-07
1.60597542997296962e-07
1.58446500695362303e-07
1.5625345928459861e-07
1.54031762561245245e-07
1.51767699868003213e-07
1.49456627349075628e-07
1.47098478634270419e-07
1.44699115500901097e-07
1.42273276853157487e-07
1.39827277890265877e-07
1.37364375216984267e-07
1.34889205275525485e-07
1.32403796818325545e-07
1.29909382857089913e-07
1.27410385565560611e-07
1.24910409668621232e-07
1.22406760678318432e-07
1.19906082932609607e-07
1.17406903669030303e-07
1.1491042121484945e-07
1.12420149158059069e-07
1.09929074131689571e-07
1.09765108627936664e-07
1.09605515273039505e-07
1.09455503162504682e-07
1.09309536502563522e-07
1.09167480005657884e-07
1.09028913569632415e-07
1.08893299706370441e-07
1.08760204767844354e-07
1.08628783001487648e-07
1.08499241825098657e-07
1.08370015043756013e-07
1.08242663882404653e-07
1.08115083947328169e-07
1.07991894179561262e-07
1.07868386521120127e-07
1.07753806950881858e-07
1.07645572935462531e-07
1.07547660136469001e-07
1.0744853797666316e-07
1.07350645484366793e-07
1.07246347264055964e-07
1.07134499330302134e-07
1.07009244524571383e-07
1.06868541582304901e-07
1.067258924544324e-07
1.06572692670584885e-07
1.06411717113705537e-07
1.06242827526488193e-07
1.06065162289317162e-07
1.05881080851459481e-07
1.05693325048408548e-07
1.05494847621716698e-07
1.05291187486962897e-07
1.05082605966299804e-07
1.04871973563802887e-07
1.04648175020762139e-07
1.04428384824749658e-07
1.04211179806147388e-07
1.03995278627672155e-07
1.03773067526245652e-07
1.03550750254404551e-07
1.03327492099737819e-07
1.03024329693526634e-07
)
;
    }
    inertWall
    {
        type            zeroGradient;
    }
    inlet
    {
        type            fixedValue;
        value           uniform 0;
    }
    outlet
    {
        type            zeroGradient;
    }
    defaultFaces
    {
        type            empty;
    }
}


// ************************************************************************* //
