/*--------------------------------*- C++ -*----------------------------------*\
  =========                 |
  \\      /  F ield         | OpenFOAM: The Open Source CFD Toolbox
   \\    /   O peration     | Website:  https://openfoam.org
    \\  /    A nd           | Version:  8
     \\/     M anipulation  |
\*---------------------------------------------------------------------------*/
FoamFile
{
    version     2.0;
    format      ascii;
    class       volScalarField;
    location    "0.5";
    object      H2;
}
// * * * * * * * * * * * * * * * * * * * * * * * * * * * * * * * * * * * * * //

dimensions      [0 0 0 0 0 0 0];

internalField   nonuniform List<scalar> 
1800
(
3.8836070107514333e-50
5.08248697417888523e-49
5.28205366474216118e-48
5.14069509281175748e-47
4.8081011832270965e-46
4.32412379172779669e-45
3.71532198769489618e-44
3.02730028800685651e-43
2.32242009540886194e-42
1.66393774701555524e-41
1.10221629383191839e-40
6.66275171173646289e-40
3.61012881677140717e-39
1.70705794780040113e-38
6.73613681584582685e-38
2.30792399475716417e-49
2.91320308997548742e-48
2.9325731814601217e-47
2.77210984051142221e-46
2.51969287782728171e-45
2.20827334211543845e-44
1.85716120376112384e-43
1.48801146290095752e-42
1.12752127544446288e-41
8.01558429019870887e-41
5.29334024661149628e-40
3.2051642885238328e-39
1.74782109960962313e-38
8.35254006255342069e-38
3.32792218737752765e-37
1.68839786619913104e-48
2.15726152760939778e-47
2.20471365172017561e-46
2.12011718783072309e-45
1.95820237649195455e-44
1.74127853601370396e-43
1.48507790986916368e-42
1.20657160076934448e-41
9.26917238932763388e-41
6.67891770600025911e-40
4.46908810409473975e-39
2.74055674703681712e-38
1.51217157491220865e-37
7.30259051616990337e-37
2.93388414696129251e-36
1.21481065249108142e-47
1.58739151526213791e-46
1.66569890364012919e-45
1.64766611996793381e-44
1.56491819341841088e-43
1.42891034595372348e-42
1.25005942160796062e-41
1.04118979279809624e-40
8.19482916751979012e-40
6.04412947158210955e-39
4.13485311819323295e-38
2.58837484737557859e-37
1.45483351638541011e-36
7.1365301931451346e-36
2.90198330650507677e-35
8.4395960289418125e-47
1.12920489241074011e-45
1.21933382939680405e-44
1.2439322114857344e-43
1.2192292748588698e-42
1.1482536108186007e-41
1.03541054440907939e-40
8.88538336887319949e-40
7.20182643243807465e-39
5.46561203446646522e-38
3.84262511612046289e-37
2.46791392289421235e-36
1.41977072847119551e-35
7.10536446355677481e-35
2.93513968118685639e-34
5.67288466659156978e-46
7.78384253563045426e-45
8.67006701596529116e-44
9.13983289531587661e-43
9.26159613497059482e-42
9.01553051554038459e-41
8.39856753488646626e-40
7.44316309917057246e-39
6.22835096263093039e-38
4.87696561269456989e-37
3.53366640519659959e-36
2.33524215563726777e-35
1.37921112344175804e-34
7.06313797702011026e-34
2.97176114198513249e-33
3.68718373421956974e-45
5.19256730069354756e-44
5.97226187983037465e-43
6.51266783154707315e-42
6.8314611039101498e-41
6.8847293482160539e-40
6.63914473320963567e-39
6.09023687365145229e-38
5.27427633207359641e-37
4.2723196756056306e-36
3.19875046671264859e-35
2.18118404162353914e-34
1.32647915155694805e-33
6.97277780667668282e-33
2.99626399048229072e-32
2.31371286444014295e-44
3.34854206412522852e-43
3.98436161508630193e-42
4.50286930883585863e-41
4.89835839786264878e-40
5.12012401124037964e-39
5.12069917288559681e-38
4.87199432202363463e-37
4.37634358047501552e-36
3.676443839012271e-35
2.85133977473911664e-34
2.01128888762338939e-33
1.26333348322095055e-32
6.83865516253993621e-32
3.01002079394604029e-31
1.39846627424964899e-43
2.08343784940059135e-42
2.56821567408237655e-41
3.01157351523762725e-40
3.40230400355813621e-39
3.69339964299260382e-38
3.83627527848479704e-37
3.79299667971367064e-36
3.5421873660165674e-35
3.09575125418991234e-34
2.49446918410734929e-33
1.82543462482709183e-32
1.18871466860077024e-31
6.65286949626872722e-31
3.01077453659389625e-30
8.09927485759788251e-43
1.24488024468407198e-41
1.59297976188019547e-40
1.9415904477880875e-39
2.28311527941980798e-38
2.57831494337693943e-37
2.78535209390087522e-36
2.86745065285357395e-35
2.78950076302768097e-34
2.54615186028724983e-33
2.13943993638013467e-32
1.62922603839796919e-31
1.10456264133036541e-30
6.42022932145415e-30
3.00188007730567926e-29
4.46346813115710936e-42
7.10879371313734258e-41
9.47099130836330959e-40
1.20162612434444418e-38
1.47355076320531549e-37
1.73303223008589073e-36
1.95025775466094062e-35
2.09443024935018088e-34
2.12296803954345498e-33
2.03324061820421454e-32
1.79156670331488056e-31
1.4259110762159952e-30
1.01135721486424389e-29
6.13685556681321253e-29
2.9855735118181034e-28
2.28734927473593219e-41
3.76512203315528591e-40
5.22852493281458849e-39
6.90483298564003211e-38
8.81342705935945916e-37
1.07551162176188305e-35
1.26146549340520013e-34
1.41632929733553268e-33
1.48766759976073954e-32
1.49969888595721754e-31
1.39522832384093638e-30
1.16981478555253176e-29
8.71444643351504487e-29
5.55863980690244184e-28
2.84407380130450207e-27
1.08539351261088795e-40
1.85063862002500714e-39
2.66664786910165423e-38
3.67785009381915942e-37
4.89563190958574918e-36
6.23483599426995729e-35
7.52750374178828121e-34
8.97262417309318448e-33
9.9803358745475831e-32
1.05488676453310654e-30
1.02792874357784952e-29
9.10150300715515385e-29
7.15917228808088001e-28
4.80707100243240907e-27
2.61694033385763017e-26
4.783469791377757e-40
8.38198588406969577e-39
1.25177777730704629e-37
1.79364082852347682e-36
2.50483760478851945e-35
3.34882908223017838e-34
4.29345253209929318e-33
5.25173878363290777e-32
6.17359690638044802e-31
6.89816005316685406e-30
7.12261733392108054e-29
6.78771366578501195e-28
5.68191266054585938e-27
4.13271601755726192e-26
2.33265999034141685e-25
1.91799342270687448e-39
3.46469645592417577e-38
5.37740821482113853e-37
8.03672601022313645e-36
1.16207156998173615e-34
1.61661165233113967e-33
2.14911158018107667e-32
2.77733109388932413e-31
3.50311907991159496e-30
4.11638543600285312e-29
4.59803576888713061e-28
4.68285846995129848e-27
4.26524494132806838e-26
3.27539197347982419e-25
2.00243362783483644e-24
6.99183480157723796e-39
1.30011124147782841e-37
2.08988623028792969e-36
3.25275349257972459e-35
4.92107324322098673e-34
7.15762971520731006e-33
1.01807574505532266e-31
1.37633416884115728e-30
1.84498237123110041e-29
2.28569748320908402e-28
2.7103987301167036e-27
3.03919916949872836e-26
3.10804781507775214e-25
2.59607952119278902e-24
1.67860518474801195e-23
2.28942113312984842e-38
4.39744149933494504e-37
7.36067906830548243e-36
1.2033025464678717e-34
1.92592057868860927e-33
3.01922373330615685e-32
4.53536243422872081e-31
6.63030945700768912e-30
9.28232458691881552e-29
1.25298045481815561e-27
1.59513513732872942e-26
1.89605344588235257e-25
2.05459671526915417e-24
1.89707433539341435e-23
1.40141872008798151e-22
6.69207434284902766e-38
1.31580324397701266e-36
2.28976345794675917e-35
3.92251735351284972e-34
6.52563720859577361e-33
1.08967633013410491e-31
1.7268280256290929e-30
2.67068429951121282e-29
4.01352288751015449e-28
5.7969075752646229e-27
8.00018560932242316e-26
1.04521296666200737e-24
1.26806643026619693e-23
1.3888448089928138e-22
1.20637276808663691e-21
1.66937157730438508e-37
3.47981929977316801e-36
6.48066723447556438e-35
1.17928686973245332e-33
2.09965341748431183e-32
3.60605707307735368e-31
6.07642240395714198e-30
9.94090220558891264e-29
1.57704913454767599e-27
2.4243057308452197e-26
3.59875805821376427e-25
5.12861902315396422e-24
6.94701271408068317e-23
8.74728680798427905e-22
9.75446035923890937e-21
3.10030089940293469e-37
7.02810555201064356e-36
1.42607859938620244e-34
2.79993596281586992e-33
5.3457527617262127e-32
9.90668618619340146e-31
1.77885327167744599e-29
3.09136204280244123e-28
5.19935294951427259e-27
8.46344752019528762e-26
1.33358922968184332e-24
2.03488057809931652e-23
3.00912342120052927e-22
4.31748193981150081e-21
6.02180543991168929e-20
1.91003470962395653e-37
5.36493579335760971e-37
1.51031342008477528e-36
4.20765885085581874e-36
1.14635413834555214e-35
3.0269507908371833e-35
7.70318976551684951e-35
1.88411163328616842e-34
4.4256085379579809e-34
9.98874654266871657e-34
2.16972239128728395e-33
4.5451626100566177e-33
9.20376025598484696e-33
1.80630087702060191e-32
3.44376886196862497e-32
6.40018383555393834e-32
1.15934553698435482e-31
2.05423934692526643e-31
3.56549908056586829e-31
6.06737291241975478e-31
1.01348843909866983e-30
1.66317295136020169e-30
2.68328018559031367e-30
4.25832647757603895e-30
6.64829087357371559e-30
1.02016030921934954e-29
1.53311696558261208e-29
2.25877691128784626e-29
3.28074308271485914e-29
4.70809255408828333e-29
6.68376174084252305e-29
9.3939632874562908e-29
1.30793279450729638e-28
1.80482142947048415e-28
2.46924667385172375e-28
3.35056553397344424e-28
4.51037012269218221e-28
6.02477396019460657e-28
7.98688181758882027e-28
1.05095487689083021e-27
1.37280163875117926e-27
1.78039750328966957e-27
2.29271190552350878e-27
2.93212945805819095e-27
3.7261003688548778e-27
4.7065649129860549e-27
5.92399065726686473e-27
7.39767277204470751e-27
9.23306615522724495e-27
1.14483581200966375e-26
1.41318845500714109e-26
1.74421964854604801e-26
2.13113882009567442e-26
2.60022224785989344e-26
3.13372910601907464e-26
3.79260330763448814e-26
4.52838421781196136e-26
5.42505805788960037e-26
6.41180955965396664e-26
7.61199976417703568e-26
8.94266444363855996e-26
1.04924800820361235e-25
1.22439693023084648e-25
1.42616361214344637e-25
1.65033753789891987e-25
1.90849391894816621e-25
2.1937040604593426e-25
2.51782622501243465e-25
2.8736731096870885e-25
3.27902525601894542e-25
3.71529858304138797e-25
4.19910212193023442e-25
4.75677638164248895e-25
5.49403554378200235e-25
6.22326037125692136e-25
9.12632307869946556e-37
2.50679946221789648e-36
6.90832161692382346e-36
1.88312472716053734e-35
5.01122973023904344e-35
1.28956046096541662e-34
3.19140979729012531e-34
7.57787503304843564e-34
1.7259120968273949e-33
3.77424519498175304e-33
7.94203735509115182e-33
1.61220427578406065e-32
3.16523613847652209e-32
6.02450053775596612e-32
1.11329186122600241e-31
2.01713117793555876e-31
3.55272668010444486e-31
6.13366082073976234e-31
1.03867065287812281e-30
1.72526098377076511e-30
2.81708025862603557e-30
4.52394532476230418e-30
7.14835493597966049e-30
1.11212621896431689e-29
1.70446814642870571e-29
2.57328563020147254e-29
3.81821296034032111e-29
5.54082320716280178e-29
7.92511670215213517e-29
1.12027525263829688e-28
1.56721648426854057e-28
2.17168572256423138e-28
2.9825738463013579e-28
4.06169977232480409e-28
5.48664286904357107e-28
7.35398670020737773e-28
9.78293984050847527e-28
1.29192368661895957e-27
1.69392611197571316e-27
2.2054640533440625e-27
2.85175698768231233e-27
3.6627444178464881e-27
4.67392072741484849e-27
5.92629863061490654e-27
7.47186740027855989e-27
9.35883991758023865e-27
1.16813806875511772e-26
1.44687657741038245e-26
1.79494133390632957e-26
2.20026634003881906e-26
2.70213334903228533e-26
3.27878771008856334e-26
3.97123843506551397e-26
4.80147175794221723e-26
5.74781966009366573e-26
6.91414858750844507e-26
8.21542147183397569e-26
9.76269325109381448e-26
1.14390792306865021e-25
1.35205227592662181e-25
1.58822708965502162e-25
1.85183291293709272e-25
2.1483416363177284e-25
2.50560038643053992e-25
2.87739201658934495e-25
3.31522552826960198e-25
3.79764109553310002e-25
4.35450864221498809e-25
4.93712214061157799e-25
5.62462898100706867e-25
6.36065502535991869e-25
7.17300317542703503e-25
8.05104997757947007e-25
9.28710860778348258e-25
1.06351239756170256e-24
8.02441602681640177e-36
2.2009778468369163e-35
6.04237997367668687e-35
1.63401275634728179e-34
4.29307537030642842e-34
1.08574968600690011e-33
2.63079114196086565e-33
6.09829506172898961e-33
1.35305432716919849e-32
2.87797542950756198e-32
5.88662467136211488e-32
1.16148544709920045e-31
2.21585970421605966e-31
4.09971363521797984e-31
7.33615754211778721e-31
1.30396639379233135e-30
2.22822402863342814e-30
3.7532718007509426e-30
6.19651909483023155e-30
1.00263799377943279e-29
1.59855104671384138e-29
2.50904834678101222e-29
3.87513889653429505e-29
5.89482154029604645e-29
8.84005821118360215e-29
1.30737894881460295e-28
1.90409989960566252e-28
2.71127139326705457e-28
3.80388065196743803e-28
5.27660484952302406e-28
7.24913128256638015e-28
9.87172767881191917e-28
1.33315276343859289e-27
1.78601252439909916e-27
2.37424311857893224e-27
3.13260562404323503e-27
4.10318377042939943e-27
5.33650179547784673e-27
6.8925422164019293e-27
8.84170003546753502e-27
1.1265885340002811e-26
1.4260036223588807e-26
1.79351383896880908e-26
2.24174443732814063e-26
2.78627167714605425e-26
3.44342713333207808e-26
4.2350396348118526e-26
5.17618480468453754e-26
6.33614568666340841e-26
7.62016482237428103e-26
9.2472307895110461e-26
1.10332458458873709e-25
1.32386098509703565e-25
1.57779181632825299e-25
1.87197870657221744e-25
2.198919059334517e-25
2.58655913095853456e-25
3.02622905094374913e-25
3.51677089655208473e-25
4.07945221739101202e-25
4.76080101667567726e-25
5.49375876878086959e-25
6.295798366233963e-25
7.23495472776237242e-25
8.3064562758689883e-25
9.4422114436404447e-25
1.06401219932098425e-24
1.2149170757109579e-24
1.36461203270377862e-24
1.53719408378028497e-24
1.71956617044567664e-24
1.92798438551734201e-24
2.14357714843336417e-24
2.44686538981544829e-24
2.79629769922393883e-24
7.99052111479912325e-35
2.20491950183608532e-34
6.06720100349237702e-34
1.63530583151190444e-33
4.25684821795705351e-33
1.06107842416355258e-32
2.5235977307519738e-32
5.72472010454699628e-32
1.24029237406783491e-31
2.57167281198209474e-31
5.12593094453064083e-31
9.86173161208739627e-31
1.82963884523836202e-30
3.31547960313467118e-30
5.81001871726911987e-30
1.00598351113152867e-29
1.6596994828358978e-29
2.76915242138181456e-29
4.45286523266170606e-29
7.01930441255194483e-29
1.09550451410360085e-28
1.68436954145773719e-28
2.54589605738329501e-28
3.78999204152633996e-28
5.5653564774596127e-28
8.0739125057378845e-28
1.15475752452745166e-27
1.61636766175054443e-27
2.2274595026128462e-27
3.03554781289372069e-27
4.10039675005051957e-27
5.49438831407609962e-27
7.30489626527711682e-27
9.63771336559247576e-27
1.26205548301148666e-26
1.6405192460681996e-26
2.11706901680207534e-26
2.71280488634927898e-26
3.45237856824475324e-26
4.3641896348532964e-26
5.48045562572859057e-26
6.83737535127687968e-26
8.47595319557687713e-26
1.04426329688440882e-25
1.27911966728687674e-25
1.5581975749034989e-25
1.88853514553743903e-25
2.27459193219331327e-25
2.73500143509266952e-25
3.24974090927209278e-25
3.86826842379413994e-25
4.57099225779008881e-25
5.43495555195406658e-25
6.3465672402639566e-25
7.43676286195319525e-25
8.59237355667795301e-25
9.99668963327762188e-25
1.15050114565896207e-24
1.32640108055041663e-24
1.51890607171348794e-24
1.73959051223584948e-24
2.00210953736798234e-24
2.26605632062370578e-24
2.54672228093570861e-24
2.90897471859288079e-24
3.28417998635213279e-24
3.63946288982847671e-24
4.09146731244082783e-24
4.56876758266785915e-24
5.0985968462752954e-24
5.62975006344635892e-24
6.26346470300354821e-24
6.88403434316698912e-24
7.7474897904491535e-24
8.75987076062935798e-24
8.16844132605739526e-34
2.27439788362226111e-33
6.28472094202124079e-33
1.68962933825681724e-32
4.35775157631193491e-32
1.07025252321979099e-31
2.49770218759341359e-31
5.54396995578498955e-31
1.17283957778902564e-30
2.36985984321340246e-30
4.6060103890622809e-30
8.65753206972311551e-30
1.58303182576172114e-29
2.75316897992029624e-29
4.81141849610476467e-29
8.02366778978115681e-29
1.30935609946121072e-28
2.11702500557376161e-28
3.342492667697584e-28
5.13342314236140204e-28
7.86507474971824524e-28
1.18473716261340816e-27
1.75069436072251603e-27
2.54956217091443257e-27
3.66151816762926784e-27
5.21550645401782863e-27
7.3317490628424531e-27
1.01019514523666263e-26
1.36853595538839356e-26
1.83338368605345262e-26
2.4377006241635088e-26
3.21737536299741234e-26
4.21428719875073728e-26
5.47850760155349393e-26
7.06998024839954043e-26
9.05654356359083722e-26
1.15151274775043931e-25
1.45352994211114796e-25
1.82208232162493047e-25
2.26903228517997477e-25
2.80753978654442822e-25
3.45178218704109504e-25
4.21710772606744439e-25
5.12051460568907322e-25
6.18120746526671557e-25
7.42075163716410451e-25
8.86313140859309583e-25
1.05282904663809514e-24
1.24563959872434576e-24
1.46428896343508687e-24
1.71470436357400731e-24
1.99899125358453909e-24
2.33845804368185448e-24
2.67581070410206586e-24
3.09576308720892938e-24
3.5446428905478003e-24
4.08958069609656569e-24
4.63512864523021301e-24
5.28059217649173394e-24
5.99331934835149212e-24
6.75058428931059647e-24
7.64462991994874124e-24
8.57195930300485794e-24
9.60240685438951805e-24
1.06787795599354851e-23
1.1932684091026782e-23
1.32225059881949265e-23
1.45948920876551725e-23
1.61429522014064502e-23
1.77988808288183909e-23
1.94711097533137556e-23
2.14129121953881194e-23
2.32960293369704692e-23
2.59000441225727317e-23
2.89270115531144697e-23
8.37408611225849518e-33
2.35497351716772493e-32
6.53315419070752927e-32
1.74946093974103608e-31
4.46112436315963853e-31
1.07709002940571748e-30
2.46140401912822292e-30
5.33655996015606432e-30
1.10090840141734378e-29
2.16410216696360669e-29
4.10308863426010573e-29
7.58209191079526012e-29
1.34700374148836901e-28
2.30088748904696381e-28
3.9269014090366069e-28
6.30869369880946349e-28
1.02640599494658776e-27
1.60674049391183319e-27
2.49969263347386071e-27
3.74618010012372243e-27
5.64361515976633989e-27
8.29682396938650073e-27
1.19548983532341631e-26
1.70409264351160337e-26
2.38527421387235893e-26
3.34078294408299139e-26
4.61385019414222581e-26
6.26503580740650978e-26
8.34846481063358709e-26
1.0994249564332784e-25
1.44081431421456043e-25
1.87406190891812416e-25
2.4189688657480195e-25
3.0985417667613352e-25
3.94153626106625628e-25
4.97537953830233444e-25
6.22928957233221482e-25
7.73986630093321816e-25
9.54926371615302531e-25
1.17063148030325958e-24
1.42640973612839016e-24
1.72756591394908443e-24
2.07948525955375885e-24
2.48786785209615609e-24
2.95905992918768643e-24
3.50024105416507502e-24
4.11926676404691228e-24
4.82360200361021024e-24
5.62248127971832584e-24
6.5223738383900139e-24
7.53094538068681388e-24
8.65733577679697041e-24
9.94465674818302543e-24
1.12799390925588478e-23
1.28285155379677494e-23
1.45893516729537401e-23
1.65763775355666104e-23
1.85218632779822352e-23
2.08223215397141302e-23
2.33985084945199792e-23
2.6058500342648419e-23
2.90014057336487897e-23
3.21602877555344787e-23
3.57903699347595864e-23
3.91884600261662805e-23
4.32813560842087199e-23
4.75263891508615354e-23
5.18826257290792564e-23
5.66359406693575177e-23
6.18545980265892871e-23
6.70053846069636769e-23
7.29553780155716041e-23
7.85524978710619383e-23
8.614897150829327e-23
9.49526827549692135e-23
8.55985680295259444e-32
2.43225347209223434e-31
6.76753295409476882e-31
1.80059208261679132e-30
4.52493032573867825e-30
1.07047037729300715e-29
2.38818988398404567e-29
5.04499964336090463e-29
1.01347344159789958e-28
1.94166892482019024e-28
3.58412882082492723e-28
6.45142535823995582e-28
1.10259618714509959e-27
1.86929489853917934e-27
3.10461989161232839e-27
5.02299186132629272e-27
7.8072955477340452e-27
1.17541965375257727e-26
1.82728996911685244e-26
2.70077815335961032e-26
3.94914366814543404e-26
5.63463533298373694e-26
7.92539476057957179e-26
1.111186411918993e-25
1.50358445578327691e-25
2.09002359327706742e-25
2.8071023167488082e-25
3.764438946352369e-25
4.92550828226615968e-25
6.3904773054076817e-25
8.30526709773872056e-25
1.06067924373662096e-24
1.34750109025256114e-24
1.699463311159435e-24
2.1322088558947644e-24
2.6521907892884563e-24
3.26541767955730921e-24
3.98846202827431457e-24
4.8372436448959833e-24
5.83190938443578158e-24
6.99340664733268996e-24
8.33833826226183161e-24
9.88364418941528668e-24
1.16462639598548932e-23
1.36439914445222662e-23
1.58974645120529621e-23
1.84303880891969251e-23
2.12670767978447228e-23
2.44316506665367819e-23
2.79462074499045203e-23
3.18296044174274579e-23
3.6103807537671714e-23
4.08318087621253661e-23
4.5888558681695352e-23
5.14646767488852586e-23
5.77061265665943338e-23
6.4535046888671325e-23
7.12644332763807406e-23
7.91626674726043566e-23
8.80646635720165177e-23
9.68971418634882745e-23
1.06299457047581729e-22
1.16593465726342178e-22
1.28341036234711367e-22
1.38930446462936584e-22
1.51467959918632286e-22
1.64764661404534368e-22
1.78345891349378289e-22
1.92033352171447155e-22
2.07128805967501859e-22
2.22717692453373451e-22
2.3988095443250906e-22
2.56432005799033379e-22
2.7747481970296181e-22
3.01583851048358937e-22
8.72811427221837223e-31
2.50641235364662754e-30
6.98520876036705117e-30
1.84067632911841174e-29
4.53968940633229611e-29
1.0481547622212705e-28
2.27462194526040981e-28
4.66801364015228923e-28
9.1222369279223209e-28
1.69794591485205375e-27
3.01646586165255164e-27
5.33739999825944812e-27
9.16473388517499764e-27
1.47675131044594468e-26
2.34869572914943642e-26
3.8039929627516989e-26
5.76993648953914311e-26
8.72370679366046369e-26
1.27450739264274651e-25
1.83097893959132942e-25
2.68575286025112224e-25
3.72081014035811121e-25
5.03480762523130974e-25
7.10716972522093507e-25
9.24684014760167918e-25
1.26676428268770357e-24
1.6167004962182031e-24
2.17700285577144287e-24
2.77965013966610459e-24
3.54667919063039757e-24
4.68354372818581109e-24
5.74567538156833123e-24
7.20942506491758864e-24
8.90485602888900088e-24
1.10495425569086858e-23
1.35561930334826002e-23
1.63666993882540332e-23
1.96487990732218083e-23
2.33833183026280497e-23
2.76980224165693258e-23
3.26769460281371781e-23
3.83124140589502433e-23
4.46695336742249297e-23
5.18075906349503138e-23
5.97658771285364136e-23
6.8579282193576088e-23
7.83053983015875316e-23
8.90221013435945569e-23
1.0079636100288417e-22
1.13685167333547283e-22
1.27727819278296126e-22
1.42964762085537878e-22
1.59464423037184099e-22
1.77161452852430642e-22
1.96200869538848548e-22
2.16814761313406651e-22
2.38885548051231002e-22
2.61456977900984938e-22
2.86523042918945465e-22
3.14591683003175694e-22
3.41925345068179025e-22
3.70653882273766273e-22
4.02522761907874574e-22
4.37396824466415308e-22
4.68531620201466901e-22
5.04151655416250177e-22
5.43113834703560359e-22
5.82708486931456205e-22
6.20010022215285886e-22
6.6130242828872219e-22
7.05423232818143424e-22
7.53981416576750547e-22
7.97174055297995402e-22
8.50489116126754532e-22
9.11043315212292938e-22
8.8742542499049608e-30
2.57604259325882482e-29
7.17991682785598253e-29
1.86666977873740252e-28
4.49628252002754121e-28
1.00889720588112626e-27
2.12127626599659577e-27
4.21822987242878652e-27
8.03970475229490699e-27
1.44430481598395781e-26
2.52402749984561465e-26
4.25086204222584547e-26
7.22478448669896243e-26
1.14797234834215084e-25
1.79040951288005166e-25
2.70933029296508728e-25
4.18749127510675695e-25
5.91560257480582774e-25
8.57396014429185759e-25
1.22244939751883941e-24
1.74676448795865173e-24
2.34286757053224774e-24
3.20159824280735806e-24
4.26855542030905043e-24
5.58823004631017967e-24
7.36795952314802636e-24
9.4398587990726588e-24
1.21354817266931167e-23
1.55071888751110991e-23
1.93681538245509912e-23
2.4098175214294941e-23
2.90136906988854729e-23
3.67850251381047629e-23
4.497318154347295e-23
5.43812457379991625e-23
6.54407994555533292e-23
7.7147529059639303e-23
9.21994802526129148e-23
1.07244804264938274e-22
1.2451714321907734e-22
1.44867250382644445e-22
1.665100849317849e-22
1.90374180766086052e-22
2.17155327419199884e-22
2.46708749603877079e-22
2.78868409627834959e-22
3.13599809644313902e-22
3.51288719090160843e-22
3.92070951974060918e-22
4.36067597014689998e-22
4.83329688890327073e-22
5.33858780608004926e-22
5.87656055248922653e-22
6.44704069129202638e-22
7.05076342639981422e-22
7.68950913317357454e-22
8.36227895149150336e-22
9.06063116508901039e-22
9.80047451926781153e-22
1.05919097292201624e-21
1.13790997254129202e-21
1.21931175199911254e-21
1.31137292749990593e-21
1.40569742095303111e-21
1.49099920176283908e-21
1.58422072464020535e-21
1.69134332240183843e-21
1.79538434355238721e-21
1.88979584392137464e-21
1.99210676723427442e-21
2.11215207980170046e-21
2.23434985615453715e-21
2.3376038420229004e-21
2.46266612507569762e-21
2.60273003428884326e-21
9.01462107743906919e-29
2.644289443715357e-28
7.35131030752172287e-28
1.87613118458319356e-27
4.38883110936426281e-27
9.52921004317002504e-27
1.93106091555017074e-26
3.73789641422318064e-26
6.91957149439659926e-26
1.18893309968949915e-25
2.00313902489857071e-25
3.41162889592512398e-25
5.45077370951743654e-25
8.48562062008591737e-25
1.31426641368017219e-24
1.9547545912136575e-24
2.82297816379987628e-24
4.08063223117234004e-24
5.62833563356988128e-24
7.68715727073188887e-24
1.06556228369118665e-23
1.46231500553832392e-23
1.90925521676840326e-23
2.44019449352005926e-23
3.17560121789194476e-23
3.95388377298744524e-23
5.21466260793068963e-23
6.49022598644332235e-23
8.01599408259110414e-23
9.83266236372845554e-23
1.19652411395301807e-22
1.47868490036132604e-22
1.77865060681739636e-22
2.11965328234900542e-22
2.511349874783312e-22
2.91350245417588758e-22
3.5037256143131813e-22
4.05434175443456066e-22
4.55257577460472066e-22
5.21684084790503627e-22
6.15550439246276794e-22
6.83652157398563476e-22
7.60636342907959019e-22
8.52017957635009847e-22
9.53378905563712201e-22
1.06255290419973841e-21
1.17819506899335166e-21
1.30128606170459186e-21
1.43230583479087793e-21
1.57055811423145358e-21
1.71684525970201967e-21
1.87119227195733602e-21
2.03263324199734027e-21
2.20120657925853308e-21
2.37654379615591045e-21
2.55855647194396166e-21
2.74715068662533347e-21
2.94191349161308358e-21
3.14216183607796516e-21
3.35068926627820896e-21
3.56010316066949111e-21
3.77616284155586329e-21
4.00452877370413253e-21
4.23280142642945913e-21
4.45127747655473481e-21
4.68745044697424293e-21
4.94227584222453744e-21
5.18371193322449639e-21
5.41002869442168768e-21
5.65481423905933575e-21
5.93941283888230295e-21
6.19703153497864419e-21
6.43110975509695075e-21
6.70832626236856472e-21
6.99169768434346247e-21
9.17563759792015693e-28
2.71471671006359043e-27
7.4877880520773463e-27
1.86270753723850735e-26
4.20317285513466699e-26
8.8105029192122182e-26
1.73109632979610369e-25
3.25256031399006925e-25
5.78112587510714486e-25
9.89776108814092165e-25
1.61825432281174185e-24
2.52167119473500356e-24
3.97104791333449523e-24
6.09880001382960948e-24
9.02647445351041196e-24
1.31647613704416096e-23
1.82964420973305056e-23
2.64508378418236637e-23
3.49092574088175469e-23
4.67255237922317077e-23
6.43092391846587081e-23
8.3445607418930038e-23
1.07208391856888019e-22
1.35878265692537446e-22
1.68426454443187902e-22
2.10146055602144433e-22
2.62735708569808558e-22
3.20607931756758644e-22
4.01941163467627125e-22
4.7766961330389847e-22
5.66078806896245071e-22
6.89364069442390186e-22
7.94635349922685555e-22
9.46305245596678651e-22
1.07700493291429435e-21
1.26046156891310863e-21
1.4567007525302888e-21
1.64929412842517875e-21
1.84490607719575108e-21
2.08715293358454058e-21
2.32710843608383651e-21
2.60773515439549653e-21
2.8560354641569379e-21
3.14499003574774048e-21
3.44822468422245328e-21
3.7800513129859462e-21
4.13810711264592049e-21
4.51073803629540177e-21
4.89508884951700635e-21
5.29210173385003627e-21
5.70219865852276664e-21
6.12761367396906184e-21
6.56465449258635385e-21
7.01433086839283457e-21
7.47447620476817672e-21
7.94255187967269449e-21
8.41948615943696978e-21
8.90518624339853748e-21
9.39194269730872851e-21
9.89504496385675367e-21
1.03906940814351666e-20
1.09030768533569833e-20
1.14267576531994036e-20
1.19363732211128981e-20
1.24446992472453486e-20
1.29712806429757567e-20
1.34923190524801342e-20
1.39857160026107978e-20
1.44900975127034098e-20
1.50069648403714843e-20
1.5446685815958373e-20
1.59399747982775948e-20
1.64196029966617044e-20
1.69689188125805417e-20
1.74781946883754367e-20
9.00923910371727593e-27
2.67832569523673716e-26
7.26775252665804155e-26
1.74674728039819508e-25
3.82067968629801311e-25
7.75720661731164977e-25
1.47515321067566514e-24
2.65785700666915914e-24
4.65873726573151431e-24
7.5342414752762085e-24
1.17881899731659705e-23
1.81178399913880676e-23
2.73189935005773649e-23
3.89859668843413577e-23
5.83672470631635763e-23
8.37626137928170253e-23
1.16286773823195261e-22
1.54736116103508482e-22
2.08491541960191401e-22
2.67200883108679729e-22
3.50526168439795299e-22
4.42128235110847015e-22
5.45382837630705975e-22
6.82457518796951486e-22
8.25626702723748021e-22
1.03554501236314037e-21
1.25278610246595472e-21
1.49611261913238008e-21
1.80627924802717215e-21
2.13247895162933649e-21
2.47103206394924312e-21
2.90405268498230016e-21
3.32562616437753084e-21
3.77884687226490374e-21
4.46246708408583642e-21
4.96063205463042791e-21
5.55631938846923226e-21
6.14165279830898328e-21
6.80266148470455817e-21
7.51538246794674303e-21
8.28771199363002681e-21
9.0739402675458278e-21
9.88813014124547663e-21
1.07449246220776926e-20
1.16373386511128636e-20
1.25627113451526865e-20
1.35088482246680372e-20
1.44785115671310778e-20
1.54682238522435495e-20
1.64773757490496957e-20
1.75029810924266219e-20
1.85442709362742811e-20
1.95967723465106844e-20
2.06562310797067258e-20
2.17206278847011633e-20
2.277625666678288e-20
2.38384599273801259e-20
2.49073343266381039e-20
2.59463944277997088e-20
2.70185781296516503e-20
2.80441177870061507e-20
2.90946170693289117e-20
3.0161202968016268e-20
3.11689482545568609e-20
3.21511288755334924e-20
3.31176154941467133e-20
3.4083773896143631e-20
3.49720196424836408e-20
3.58125073929427453e-20
3.66676018413490195e-20
3.74272729864226094e-20
3.8148323282664831e-20
3.89064847401074987e-20
3.97549990829262592e-20
4.04766076357328633e-20
8.59115574513375816e-26
2.59006417540894037e-25
6.78953536188190835e-25
1.54802710869610117e-24
3.27152548567786377e-24
6.37584452335219243e-24
1.14888876664186852e-23
2.08679000975297179e-23
3.42175609469738964e-23
5.38258166653410982e-23
8.16276137144065668e-23
1.18668272013344611e-22
1.70621826990246908e-22
2.50010673627855904e-22
3.68641818853016303e-22
4.86379846130406404e-22
6.46620997488607318e-22
8.55536180402417775e-22
1.10275362292316521e-21
1.36885704710903123e-21
1.77318238828727986e-21
2.15342565051893112e-21
2.62566811970807869e-21
3.20996733175631859e-21
3.91580775757385048e-21
4.69591806546263071e-21
5.45830631137873886e-21