/*--------------------------------*- C++ -*----------------------------------*\
  =========                 |
  \\      /  F ield         | OpenFOAM: The Open Source CFD Toolbox
   \\    /   O peration     | Website:  https://openfoam.org
    \\  /    A nd           | Version:  8
     \\/     M anipulation  |
\*---------------------------------------------------------------------------*/
FoamFile
{
    version     2.0;
    format      ascii;
    class       volScalarField;
    location    "0.5";
    object      p;
}
// * * * * * * * * * * * * * * * * * * * * * * * * * * * * * * * * * * * * * //

dimensions      [1 -1 -2 0 0 0 0];

internalField   nonuniform List<scalar> 
1800
(
101325.249394421975
101325.215590357358
101325.198228372712
101325.195616159122
101325.193000915286
101325.186742316029
101325.179708852855
101325.173916192725
101325.169085135116
101325.164300944249
101325.159270471675
101325.154208461317
101325.149312481459
101325.144569790136
101325.139888342441
101325.219913042456
101325.208651161913
101325.19777893454
101325.193424985468
101325.190369212592
101325.185168114695
101325.178924362597
101325.173386199618
101325.168658334936
101325.164015863978
101325.159137102164
101325.1541948511
101325.149396539797
101325.144758265829
101325.140204158175
101325.218890400967
101325.210339147496
101325.199606811584
101325.193467000048
101325.190012177773
101325.185464312279
101325.179626064317
101325.174035494332
101325.169184092345
101325.1645433011
101325.159728431041
101325.154830864456
101325.150051194796
101325.145434110062
101325.140939447912
101325.206563552987
101325.202009776418
101325.195509336656
101325.190859245122
101325.18762334896
101325.183600225908
101325.178445439335
101325.1732569874
101325.168584244515
101325.164110965823
101325.159490782215
101325.154759964251
101325.150103488966
101325.145594833419
101325.141217153097
101325.205423864521
101325.202558744873
101325.196971003257
101325.191668221101
101325.18763503879
101325.183589025226
101325.178786252
101325.173749855501
101325.16901431905
101325.164491002593
101325.159907018839
101325.155233932193
101325.150610205645
101325.146119108016
101325.14176075696
101325.199546588672
101325.197181454074
101325.192995367936
101325.188942731751
101325.185564340398
101325.182004859918
101325.177711881173
101325.173044249634
101325.16849386743
101325.164100874375
101325.159669444125
101325.15514202058
101325.150621366483
101325.146197243681
101325.141885225559
101325.198785239336
101325.197408083564
101325.194086613817
101325.189990003782
101325.186098595703
101325.182253346167
101325.178001466964
101325.173419950472
101325.168849681359
101325.16439951121
101325.159956536503
101325.155451696322
101325.150947030081
101325.146521179384
101325.142203022493
101325.195968701126
101325.194432354765
101325.191335839918
101325.187783040106
101325.184410354806
101325.18098228272
101325.177100776185
101325.172813386947
101325.168417356166
101325.164071678068
101325.159733483801
101325.155334651572
101325.150912996585
101325.146532905928
101325.142242262911
101325.195869492629
101325.194890138766
101325.192390993296
101325.188936957682
101325.185281693368
101325.181554307521
101325.177541344412
101325.173195270734
101325.16873922004
101325.164334342655
101325.159952235103
101325.155536891223
101325.151094705041
101325.146706531377
101325.142400008699
101325.194834379785
101325.193604962798
101325.190898824774
101325.187509626005
101325.184125861124
101325.18069830547
101325.176930287722
101325.17276301836
101325.168425117517
101325.164100432608
101325.15978802563
101325.155439907365
101325.151045155406
101325.14668316282
101325.142390760913
101325.194802137266
101325.193586844107
101325.190877192072
101325.187489494623
101325.184098684535
101325.180686374762
101325.176905521614
101325.172729688318
101325.168393518747
101325.16407791285
101325.159774680986
101325.155406404127
101325.151011072681
101325.146646368346
101325.142365905514
101325.195857178667
101325.194878690832
101325.192374607141
101325.188924571994
101325.185260477796
101325.181537872428
101325.17752117473
101325.173181260077
101325.168726079093
101325.164315456059
101325.159935586315
101325.155514270882
101325.151078532959
101325.1466826588
101325.142379840472
101325.195966709754
101325.19443294745
101325.191336338758
101325.187776273291
101325.184413069583
101325.180988443273
101325.177103178226
101325.172800486063
101325.168404539028
101325.164073724212
101325.159738509101
101325.155335286443
101325.150902801193
101325.146531488208
101325.142244211122
101325.198783964894
101325.197407638319
101325.194086123214
101325.18998753796
101325.186099280676
101325.182255360472
101325.17800100462
101325.173413339013
101325.168843001506
101325.164398709909
101325.159957766155
101325.155451007493
101325.150942667242
101325.146519680318
101325.142203607204
101325.199545578056
101325.197180669027
101325.192994551515
101325.188941439381
101325.185564103725
101325.182004946604
101325.177710513948
101325.173040293521
101325.16848983134
101325.164099224625
101325.159668939363
101325.155140827745
101325.150618955144
101325.146195881476
101325.141884982193
101325.205422886604
101325.202557837227
101325.196970098506
101325.191667218285
101325.187634339294
101325.183588260043
101325.178784648102
101325.173747099034
101325.169011496473
101325.164489173956
101325.159905802648
101325.155232546967
101325.150608471027
101325.146117829034
101325.141760057639
101325.206562573017
101325.20200880857
101325.195508363424
101325.19085824168
101325.18762238932
101325.1835990994
101325.17844381051
101325.173254801644
101325.168582005805
101325.164109156671
101325.159489304599
101325.154758502598
101325.150101978448
101325.145593566413
101325.141216187942
101325.218889403128
101325.210338147124
101325.199605795831
101325.193465948789
101325.190011070619
101325.185463026311
101325.1796244586
101325.174033587449
101325.169182138838
101325.164541540114
101325.159726858401
101325.154829363222
101325.150049741074
101325.145432804158
101325.140938301236
101325.219912023749
101325.208650133151
101325.197777881884
101325.193423885852
101325.190368027164
101325.185166764466
101325.178922784995
101325.173384430978
101325.168656522321
101325.164014145412
101325.159135502676
101325.154193331415
101325.149395091605
101325.144756920839
101325.140202903203
101325.249393392805
101325.215589316547
101325.198227301968
101325.195615027536
101325.192999687235
101325.186740935562
101325.179707287025
101325.173914477549
101325.169083375891
101325.164299241573
101325.159268859861
101325.154206929859
101325.149311023706
101325.144568411473
101325.139887018042
101325.136225684852
101325.133361638014
101325.130094809181
101325.126451460223
101325.122910185019
101325.119651605608
101325.116551838204
101325.113488736708
101325.110460241223
101325.107513473326
101325.104667277177
101325.101908301949
101325.099221470547
101325.096603813741
101325.094057889975
101325.091583496091
101325.089176918715
101325.086834016198
101325.0845518274
101325.082328026998
101325.080160076861
101325.078045113769
101325.075980265319
101325.073962846465
101325.071990331606
101325.070060275437
101325.068170299739
101325.066318126032
101325.064501599845
101325.062718690941
101325.060967484926
101325.059246178294
101325.057553078484
101325.055886602495
101325.054245273102
101325.052627712736
101325.051032637391
101325.049458850364
101325.047905235493
101325.046370748867
101325.044854410371
101325.043355293004
101325.041872511356
101325.040405208274
101325.038952540301
101325.037513659903
101325.036087690882
101325.034673640694
101325.033270465079
101325.031876931811
101325.030493470986
101325.029120038103
101325.027754128329
101325.026395452544
101325.025043866553
101325.023699761849
101325.022362673335
101325.021033929181
101325.019712750218
101325.018398238011
101325.01709090409
101325.015790781079
101325.014497849552
101325.013212348364
101325.011933998889
101325.010661279302
101325.009392512133
101325.008124087879
101325.006849456258
101325.005552375718
101325.004200751195
101325.002749099222
101325.0012314544
101325.000352663905
101325.000069483576
101325.136506042138
101325.133545303092
101325.130309692118
101325.126743589441
101325.123243352864
101325.119992198408
101325.116898380365
101325.113846612672
101325.110825641852
101325.107878130584
101325.105026320933
101325.102260735162
101325.099566569406
101325.096939729337
101325.094382730953
101325.091896264348
101325.08947728714
101325.08712176347
101325.084826690349
101325.082589866914
101325.080408980008
101325.078281329988
101325.076204112338
101325.074174678841
101325.072190553547
101325.070249345386
101325.068348713132
101325.066486394149
101325.064660239179
101325.062868219597
101325.061108419119
101325.059379027065
101325.05767833798
101325.056004752696
101325.054356775916
101325.052733011267
101325.051132155044
101325.049552990793
101325.047994383247
101325.046455270844
101325.044934657548
101325.043431602491
101325.04194520833
101325.040474608686
101325.039018954369
101325.03757739815
101325.036149064807
101325.034732964064
101325.033328105012
101325.031933549835
101325.030549257688
101325.029173806528
101325.027807013452
101325.026447570446
101325.025095760866
101325.02374993694
101325.02241247498
101325.021083741449
101325.019763490433
101325.018449631156
101325.017143394856
101325.015844800379
101325.01455446129
101325.013275132675
101325.012007862548
101325.010752909962
101325.009515912461
101325.008305593408
101325.007136779328
101325.006032281541
101325.004992190748
101325.003958691101
101325.002817744185
101325.001518875186
101324.999697640742
101325.137075419872
101325.133884021256
101325.130675288674
101325.127220311144
101325.123754799948
101325.120475265663
101325.117354413247
101325.114293981198
101325.111266431326
101325.108304272828
101325.105433474819
101325.10265001138
101325.09993953607
101325.097296126973
101325.094721723304
101325.092217733385
101325.089781704606
101325.087409581116
101325.085098175099
101325.08284531135
101325.080648848583
101325.078506204431
101325.076414595082
101325.074371369556
101325.072374072595
101325.070420343953
101325.068507857315
101325.066634345902
101325.064797648098
101325.062995722212
101325.061226636797
101325.059488560859
101325.05777976336
101325.056098616347
101325.054443594126
101325.052813267946
101325.05120629973
101325.049621436192
101325.048057503125
101325.046513397858
101325.044988081179
101325.043480566979
101325.041989911799
101325.040515203291
101325.039055546498
101325.037610048821
101325.036177800299
101325.034757861838
101325.033349330144
101325.031951437704
101325.030563749446
101325.02918554646
101325.027816291316
101325.026454993364
101325.025101708219
101325.023755776099
101325.022418034481
101325.021088769179
101325.019768020735
101325.018453677752
101325.017146443963
101325.01584746044
101325.014551465138
101325.013264859968
101325.011983893826
101325.010703677632
101325.009413100546
101325.008103722837
101325.006745588733
101325.005288861445
101325.003653645355
101325.001731627504
101324.999655404637
101324.997997332684
101324.998192085157
101325.137250629399
101325.133962025546
101325.130868964101
101325.127575879582
101325.12417583981
101325.120893024403
101325.117774285172
101325.114739167679
101325.111737794752
101325.108787994279
101325.105919618916
101325.103136404548
101325.100425588273
101325.097779009957
101325.095197559858
101325.092683635477
101325.090236027478
101325.08785112972
101325.085525767587
101325.083257918217
101325.081045792103
101325.078887134936
101325.076779357361
101325.074719929937
101325.072706522071
101325.070736906506
101325.068808868469
101325.066920219295
101325.065068852971
101325.063252772641
101325.061470082845
101325.059718976627
101325.057997734999
101325.0563047326
101325.05463843944
101325.052997417122
101325.051380313176
101325.049785855823
101325.048212849695
101325.046660170061
101325.045126755736
101325.043611600195
101325.042113742398
101325.040632256991
101325.039166243427
101325.037714815524
101325.036277092935
101325.034852202094
101325.03343930433
101325.03203764309
101325.030646575571
101325.029265397345
101325.027893372579
101325.026529912589
101325.025174847397
101325.023827869023
101325.022489098556
101325.02115883409
101325.019836992316
101325.0185227763
101325.017216928609
101325.015920027639
101325.01463171863
101325.013355699615
101325.012089864496
101325.010839959883
101325.009609868604
101325.008411045026
101325.007264439337
101325.006200537769
101325.005246129847
101325.004381803024
101325.003446762057
101325.002111300579
101325.000116053299
101325.137733068696
101325.134356610055
101325.131277436725
101325.128037283837
101325.124643729287
101325.121330391237
101325.118191319023
101325.1151567911
101325.112157275638
101325.109197885904
101325.106312871649
101325.103513869297
101325.100789692951
101325.098129668739
101325.095533299798
101325.093003766495
101325.090540981881
101325.088141555068
101325.085801980938
101325.083520076892
101325.081294190983
101325.079122238545
101325.077001672267
101325.074929933951
101325.07290468803
101325.070923737992
101325.068984897123
101325.067085981558
101325.065224875885
101325.063399573482
101325.061608170552
101325.059848848032
101325.05811986918
101325.056419586312
101325.054746445123
101325.053098981633
101325.051475815591
101325.049875645564
101325.048297244983
101325.046739456593
101325.045201186294
101325.043681394585
101325.042179088661
101325.040693314309
101325.039223148211
101325.037767690956
101325.036326063506
101325.034897411097
101325.033480920349
101325.032075847063
101325.030681534408
101325.0292973795
101325.027922820474
101325.026557420089
101325.025200885328
101325.023852983635
101325.022513589021
101325.021182835088
101325.019860638859
101325.018546803665
101325.017241516383
101325.01594490245
101325.0146571613
101325.01337863825
101325.012107045433
101325.010838858347
101325.009563363084
101325.008259835988
101325.006891789861
101325.005405141099
101325.003746850518
101325.00193424098
101325.000213612031
101324.999094184692
101324.998983340993
101325.137832426684
101325.134442903713
101325.131403685446
101325.128231310024
101325.124886448553
101325.121593671007
101325.118468973102
101325.115454878425
101325.112475073547
101325.109526970205
101325.10664668477
101325.103851075837
101325.101130313487
101325.098471908292
101325.09587422949
101325.093341163985
101325.090873596142
101325.088468366579
101325.086121784188
101325.083831670185
101325.081596661956
101325.079414991094
101325.077284293526
101325.075202109889
101325.07316621083
101325.07117452794
101325.069224989638
101325.067315494205
101325.065443984815
101325.063608505006
101325.06180719551
101325.060038272626
101325.058300022996
101325.056590813343
101325.054909097511
101325.053253414517
101325.051622382496
101325.050014693959
101325.048429113216
101325.046864472723
101325.04531966761
101325.043793648947
101325.042285417265
101325.040794016779
101325.039318529947
101325.03785807309
101325.036411794659
101325.034978878597
101325.033558553812
101325.032150106999
101325.030752889725
101325.029366305622
101325.027989799622
101325.026622889753
101325.025265195451
101325.02391644349
101325.022576472737
101325.021245277734
101325.019922867403
101325.018609308187
101325.017304902154
101325.016010253443
101325.014726334557
101325.013454351996
101325.012195300151
101325.010950588257
101325.009722635121
101325.008518996096
101325.007358387127
101325.006274196698
101325.005302338075
101325.004433225055
101325.003532198345
101325.002352313313
101325.000757272792
101325.138144621946
101325.134733887069
101325.131689821719
101325.128532527
101325.125197112662
101325.121894712865
101325.118754745708
101325.115732075181
101325.112748227606
101325.109793886688
101325.106903835054
101325.10409773764
101325.101367372932
101325.09869950499
101325.096091561121
101325.093547585173
101325.091069157832
101325.088653453291
101325.086296688751
101325.083996610527
101325.081751960955
101325.079561101578
101325.077421701659
101325.075331265863
101325.073287535197
101325.071288440755
101325.069331914929
101325.067415844955
101325.065538152849
101325.063696862708
101325.061890100085
101325.060116065812
101325.058373028209
101325.056659333233
101325.054973413877
101325.053313788594
101325.051679054435
101325.050067882388
101325.048479015168
101325.046911264581
101325.045363506288
101325.043834673052
101325.042323749294
101325.040829766673
101325.039351799947
101325.037888963692
101325.036440411684
101325.035005339058
101325.03358298869
101325.03217265867
101325.030773708422
101325.029385557893
101325.028007686909
101325.026639648917
101325.025281086913
101325.02393173553
101325.022591415851
101325.021260040594
101325.019937591933
101325.018624172269
101325.017320133949
101325.016026210404
101325.01474354892
101325.013473486571
101325.012216781863
101325.010971879849
101325.009730816397
101325.008471955269
101325.007152736012
101325.005716079278
101325.00412646716
101325.002435081435
101325.000851642297
101324.999751411393
101324.999379698027
101325.138183412841
101325.134779646687
101325.13175344035
101325.128623457946
101325.125314354926
101325.122023996591
101325.118892535582
101325.115881566817
101325.112911669261
101325.109968221324
101325.107084184972
101325.104281507491
101325.101554065506
101325.098888557637
101325.096281554899
101325.09373703145
101325.09125714883
101325.0888394629
101325.08648019415
101325.084176979915
101325.081928564643
101325.07973342175
101325.077589320412
101325.075493821918
101325.073444725756
101325.071440045227
101325.069477798359
101325.067555940026
101325.065672442666
101325.063825373349
101325.062012897513
101325.060233249533
101325.058484722482
101325.056765680129
101325.055074568358
101325.053409914894
101325.051770322199
101325.050154463112
101325.048561079719
101325.046988983057
101325.045437047753
101325.043904205799
101325.042389442344
101325.040891792989
101325.039410341386
101325.03794421679
101325.036492593732
101325.035054693857
101325.033629789337
101325.032217206433
101325.030816327708
101325.0294265907
101325.028047486136
101325.026678561131
101325.025319426495
101325.023969760281
101325.022629307481
101325.021297881904
101325.019975383198
101325.01866187519
101325.01735774675
101325.01606394563
101325.014782214988
101325.013515225131
101325.012266458143
101325.011039862366
101325.009839288381
101325.008667986796
101325.007528859656
101325.006426148655
101325.005369305421
101325.004351845084
101325.003230038754
101325.002038630075
101325.000773609732
101325.138338515564
101325.134927165171
101325.131894924707
101325.128765442612
101325.125453585963
101325.122164053813
101325.119025984124
101325.116010185098
101325.113036478739
101325.110087748049
101325.107196392899
101325.104386015097
101325.101651932928
101325.098980486902
101325.096367469494
101325.093816695808
101325.091330687879
101325.088907234298
101325.086542455319
101325.084233863177
101325.081980227493
101325.079780153363
101325.07763149387
101325.075531812443
101325.073478887731
101325.071470722818
101325.069505325984
101325.067580629286
101325.065694573583
101325.063845195895
101325.062030636545
101325.060249107148
101325.058498878338
101325.056778292172
101325.055085774788
101325.053419835953
101325.051779061614
101325.050162107931
101325.048567701539
101325.046994642064
101325.045441794733
101325.04390808256
101325.042392483942
101325.040894030928
101325.039411806967
101325.03794494507
101325.036492627492
101325.035054087261
101325.033628609497
101325.032215532861
101325.030814250145
101325.029424207081
101325.028044901861
101325.026675885791
101325.025316765532
101325.02396720284
101325.022626912221
101325.021295640137
101325.019973169052
101325.018659396461
101325.017354521042
101325.01605938279
101325.014775937147
101325.01350767666
101325.012259757146
101325.011038355777
101325.009847082067
101325.008673942546
101325.007465071074
101325.006110244882
101325.004531889921
101325.002912676006
101325.001004924896
101324.999739063132
101324.999421314948
101325.138335842203
101325.1349319929
101325.131904984271
101325.128786225847
101325.125485145749
101325.122195916978
101325.119056260781
101325.116046297102
101325.113076980721
101325.110132187212
101325.107243954873
101325.104436086171
101325.10170434996
101325.099035048275
101325.096423699797
101325.093873995938
101325.091388696674
101325.088965730058
101325.086601170915
101325.084292522937
101325.082038690729
101325.079838314239
101325.077689174155
101325.075588763095
101325.073534840383
101325.071525429492
101325.069558570976
101325.067632227627
101325.065744370091
101325.063893066981
101325.062076490372
101325.060292880429
101325.058540531376
101325.056817804783
101325.055123143393
101325.053455070942
101325.051812184684
101325.050193147035
101325.04859668632
101325.047021611637
101325.045466795054
101325.043931164473
101325.042413703937
101325.04091345286
101325.039429504395
101325.0379610042
101325.036507151221
101325.035067199031
101325.033640455964
101325.032226285097
101325.030824101894
101325.029433371747
101325.028053606366
101325.026684360477
101325.025325226568
101325.023975831209
101325.022635850532
101325.021304933878
101325.019982666781
101325.0186686222
101325.017362512182
101325.016064634256
101325.014776722426
101325.01350292188
101325.012250706888
101325.011032744544
101325.00987114184
101325.0088014926
101325.007850643655
101325.006904398862
101325.005550549322
101325.005353579385
101325.006652539989
101325.005905986007
101325.002933374199
101325.138307339235
101325.134899862911
101325.131878562679
101325.128753813013
101325.125447875442
101325.12216360608
101325.11903488556
101325.116019103109
101325.113048784595
101325.110104728257
101325.107217825192
101325.104411978726
101325.101682419394
101325.099015037282
101325.096405117089
101325.093856716441
101325.091372656127
101325.088950808858
101325.086587271406
101325.084279556148
101325.082026539167
101325.079826910485
101325.077678481393
101325.075578745586
101325.073525454791
101325.071516628741
101325.069550307569
101325.067624453965
101325.065737038094
101325.063886128002
101325.062069895735
101325.060286581574
101325.05853448002
101325.056811953371
101325.055117445256
101325.053449481202
101325.051806662726
101325.050187667046
101325.048591244529
101325.047016199096
101325.045461395435
101325.043925760721
101325.042408280569
101325.040907995499
101325.039423999566
101325.03795544045
101325.036501519833
101325.035061494083
101325.033634674211
101325.032220424997
101325.03081816234
101325.029427351255
101325.028047503569
101325.026678174429
101325.025318952481
101325.023969441361
101325.022629199026
101325.021297711486
101325.019974251511
101325.018657428751
101325.017344168344
101325.016027689286
101325.014694736805
101325.013323914784
101325.011886724606
101325.010350334735
101325.008683024469
101325.00687619581
101325.00502371919
101325.00350158551
101325.003045681093
101325.002194359913
101325.001089306985
101325.000594360739
101325.000223898474
101325.138317765697
101325.134905722342
101325.131874653802
101325.128744449845
101325.125436244241
101325.12214454166
101325.119009124726
101325.115991979939
101325.113017372947
101325.11006849735
101325.107177533981
101325.104367951732
101325.101634706472
101325.098964034682
101325.096351731409
101325.093801708426
101325.091316435719
101325.088893637992
101325.086529454784
101325.084221424477
101325.081968328144
101325.079768731404
101325.07762048638
101325.075521167135
101325.073468554168
101325.071460648585
101325.069495457952
101325.067570914543
101325.065684958943
101325.063835627399
101325.062021059406
101325.060239466198
101325.058489117902
101325.056768356328
101325.055075607714
101325.053409382817
101325.051768269506
101325.050150928611
101325.048556090042
101325.046982549189
101325.045429169521
101325.043894880029
101325.042378669052
101325.040879580367
101325.039396713619
101325.037929224811
101325.036476327921
101325.035037295704
101325.033611459439
101325.032198206332
101325.030796975305
101325.029407252965
101325.028028569941
101325.026660495801
101325.025302630253
101325.023954587261
101325.022615977039
101325.021286409799
101325.019965462474
101325.018652645027
101325.017347528352
101325.016050270715
101325.014762617182
101325.01348889184
101325.012236698618
101325.011018506862
101325.00985587899
101325.008786285965
101325.007866783068
101325.007186588817
101325.00694649441
101325.005647800979
101325.002797364607
101325.000787822355
101324.999872885543
101325.138185954653
101325.134781387693
101325.131754170681
101325.128621606244
101325.125306646252
101325.122022036885
101325.11889309375
101325.115882361599
101325.112912015116
101325.109968099132
101325.107083721101
101325.104280848376
101325.10155331342
101325.098887627275
101325.096280383019
101325.093735642455
101325.091255546256
101325.088837608957
101325.086478060097
101325.084174556177
101325.081925840044
101325.079730366822
101325.077585898543
101325.075489999275
101325.073440468972
101325.071435317688
101325.069472559626
101325.067550146749
101325.065666048715
101325.06381832929
101325.06200515019
101325.060224742119
101325.058475394486
101325.056755467755
101325.05506340487
101325.053397731113
101325.051757047622
101325.050140026855
101325.048545410536
101325.046972007971
101325.045418694703
101325.043884409592
101325.042368150156
101325.040868969678
101325.039385977172
101325.037918339338
101325.036465283396
101325.035026099809
101325.033600140552
101325.032186814147
101325.030785579715
101325.029395941834
101325.028017447999
101325.026649684747
101325.025292267645
101325.023944835295
101325.022607051244
101325.021278613276
101325.019959267738
101325.018648871061
101325.01734758637
101325.0160562893
101325.014777147124
101325.013514143648
101325.01227341505
101325.011063594342
101325.009895863623
101325.008780367541
101325.00770570962
101325.006567433215
101325.004941760359
101325.003617785711
101325.002709776047
101325.001636880013
101325.000493229556
101325.138145743287
101325.134734647872
101325.131689712478
101325.128530917747
101325.125193831394
101325.121892999174
101325.118754310766
101325.11573202828
101325.112748055355
101325.109793422962
101325.106903074135
101325.104096727664
101325.101366146206
101325.098698013884
101325.096089760365
101325.093545471609
101325.09106671864
101325.088650649632
101325.086293483095
101325.083992975386
101325.081747866439
101325.079556506738
101325.077416558968
101325.075325526675
101325.073281149293
101325.071281353448
101325.069324066397
101325.067407170573
101325.065528583567
101325.063686324385
101325.06187851321
101325.060103345604
101325.058359084229
101325.056644069977
101325.054956730964
101325.053295581456
101325.051659215198
101325.050046301069
101325.048455580443
101325.04688586558
101325.04533603639
101325.04380503649
101325.042291868886
101325.040795592868
101325.039315323447
101325.037850234687
101325.036399565375
101325.034962625534
101325.033538793752
101325.032127510189
101325.030728267287
101325.029340599591
101325.027964081208
101325.026598320605
101325.025242945747
101325.023897607141
101325.022561999867
101325.021235887005
101325.019919133876
101325.018611791704
101325.017314261073
101325.016027542137
101325.014753515439
101325.013495088191
101325.012255981128
101325.011039695193
101325.00984600473
101325.008660642168
101325.007434992745
101325.006077298123
101325.004523500131
101325.003044575365
101325.001826559295
101325.000807723933
101325.000011499797
101325.137832536202
101325.134442829076
101325.131403061328
101325.128229903377
101325.12488444928
101325.121592110794
101325.118467961729
101325.115454098021
101325.11247423492
101325.109525919237
101325.106645366483
101325.103849481733
101325.101128435432
101325.098469708159
101325.095871666927
101325.093338215389
101325.090870232787
101325.088464544286
101325.086117455736
101325.083826791873
101325.081591187176
101325.079408864898
101325.077277454635
101325.075194493416
101325.073157748135
101325.071165144938
101325.069214605814
101325.067304022858
101325.065431332841
101325.063594572595
101325.061791875676
101325.060021451136
101325.058281578124
101325.056570615954
101325.054887011385
101325.053229296915
101325.051596084886
101325.049986063445
101325.048397993771
101325.046830707928
101325.045283104846
101325.043754145518
101325.042242848591
101325.040748286352
101325.039269584129
101325.037805925138
101325.036356560755
101325.034920820734
101325.033498104909
101325.032087875879
101325.030689653649
101325.029303001516
101325.027927525618
101325.026562872648
101325.025208701234
101325.023864697359
101325.022530598464
101325.021206212128
101325.019891447912
101325.018586405335
101325.017291491997
101325.016007559956
101325.014736007113
101325.013478712295
101325.012237666873
101325.011014216128
101325.009808095914
101325.008617238127
101325.007441619484
101325.006286779302
101325.005160995323
101325.004085149732
101325.002993240865
101325.00176375467
101325.000439281823
101325.137732567629
101325.134355999748
101325.131276499786
101325.128035928195
101325.124642090232
101325.121328831825
101325.118189936184
101325.115155469757
101325.112155859431
101325.109196259626
101325.106310969059
101325.103511653666
101325.100787133051
101325.098126723227
101325.095529925034
101325.092999924134
101325.09053663032
101325.0881366432
101325.085796452971
101325.083513875783
101325.08128725586
101325.079114501466
101325.076993058668
101325.074920363637
101325.07289407542
101325.07091199058
101325.068971914909
101325.067071657031
101325.065209093518
101325.063382209381
101325.061589092031
101325.059827913457
101325.058096927591
101325.056394477448
101325.054718999629
101325.053069021509
101325.051443155477
101325.049840094012
101325.048258606796
101325.046697536905
101325.045155796266
101325.043632359346
101325.04212625738
101325.040636571677
101325.039162429428
101325.037703014474
101325.036257587097
101325.034825511568
101325.033406229093