/*--------------------------------*- C++ -*----------------------------------*\
  =========                 |
  \\      /  F ield         | OpenFOAM: The Open Source CFD Toolbox
   \\    /   O peration     | Website:  https://openfoam.org
    \\  /    A nd           | Version:  8
     \\/     M anipulation  |
\*---------------------------------------------------------------------------*/
FoamFile
{
    version     2.0;
    format      ascii;
    class       surfaceScalarField;
    location    "0.5";
    object      phi;
}
// * * * * * * * * * * * * * * * * * * * * * * * * * * * * * * * * * * * * * //

dimensions      [1 0 -1 0 0 0 0];

internalField   nonuniform List<scalar> 
3490
(
2.06166502820289142e-07
7.1270816325045149e-09
1.98545351780956765e-07
7.62115090357295141e-09
1.91655464887851115e-07
6.88988676758855589e-09
1.84554687261000792e-07
7.10077749731138465e-09
1.77270454392461603e-07
7.28423273764103722e-09
1.70117985346174862e-07
7.15246891076980625e-09
1.63240921347656921e-07
6.87706385145329494e-09
1.56629459516734001e-07
6.61146168461314644e-09
1.50268819048434071e-07
6.36064031582525072e-09
1.44173768172988702e-07
6.09505072075115554e-09
1.38360472427190844e-07
5.81329559381313861e-09
1.32835565206863812e-07
5.52490706762917182e-09
1.27600959936576204e-07
5.23460511343832998e-09
1.22660674873230933e-07
4.94028490179816465e-09
4.63637761134191647e-09
1.18024297094862824e-07
2.14976779838368884e-07
5.44382421200994039e-09
2.15680350031566015e-07
6.91758059259670601e-09
2.15654214623293048e-07
6.91602204610704495e-09
2.15408227393882783e-07
7.34676460288362915e-09
2.14772697602434052e-07
7.91976240444809374e-09
2.13772950977893445e-07
8.15221540745792987e-09
2.12519897435322495e-07
8.13011726144755515e-09
2.11074480417255493e-07
8.05687855200253059e-09
2.09459104059334026e-07
7.97601652612706384e-09
2.07702827780358032e-07
7.85132685352410317e-09
2.05844189177282723e-07
7.67193405144751194e-09
2.03914850912323645e-07
7.45424518159443118e-09
2.01938254083860483e-07
7.21120178770437196e-09
1.99937220610641989e-07
6.9413182171366408e-09
6.63017934665177032e-09
1.97943418715151739e-07
2.15180803798450446e-07
3.55654063842688462e-09
2.16856136571497851e-07
5.24224766971686262e-09
2.18027905981011482e-07
5.74425249886568336e-09
2.19117053279145766e-07
6.25761716430153927e-09
2.20128612898044257e-07
6.9082026518424528e-09
2.20946538242221398e-07
7.3342899303287495e-09
2.21597611120096026e-07
7.4790442301895723e-09
2.22135994246515178e-07
7.51849526769952082e-09
2.2256882438002735e-07
7.54318622523729198e-09
2.22888071505860169e-07
7.53207956891925405e-09
2.23099811863964747e-07
7.46019354146358371e-09
2.23217123382696952e-07
7.3369335093240511e-09
2.23249227615433035e-07
7.17909739426868779e-09
2.23200515237693276e-07
6.99003043222677699e-09
6.76303737862382185e-09
2.23067657036518921e-07
2.14359311696345902e-07
2.49072324701801478e-09
2.1550326594732938e-07
4.09829328610379888e-09
2.16532726007720397e-07
4.71479229022477938e-09
2.17623507353572492e-07
5.16683567632107297e-09
2.18816795848491132e-07
5.71491402954777005e-09
2.20013550247566432e-07
6.1375354085889431e-09
2.21160401971420505e-07
6.33219237032296423e-09
2.22268728091840906e-07
6.41016897264141162e-09
2.23343816246487023e-07
6.4680978960288897e-09
2.24373234936527506e-07
6.50266072412888471e-09
2.25347865539304052e-07
6.48556279890907673e-09
2.26266714818466488e-07
6.41808408136829633e-09
2.27128679852565153e-07
6.31713219906890437e-09
2.27928043543004207e-07
6.19066658307906625e-09
6.03795774243156934e-09
2.28653123020729595e-07
2.13989345134528346e-07
1.79486997052084451e-09
2.15055540464097732e-07
3.03209778600514217e-09
2.16088336508587589e-07
3.68199607704210451e-09
2.17130828627920716e-07
4.12434338676088713e-09
2.18260468535948451e-07
4.58527398492126491e-09
2.19422124521276057e-07
4.97587931074270357e-09
2.20560276284232076e-07
5.19404044548016325e-09
2.2168090200305538e-07
5.28954304434951234e-09
2.22799383978792808e-07
5.34961570290302412e-09
2.23910618826128296e-07
5.39142570702871014e-09
2.25002563758202454e-07
5.39361773362512095e-09
2.26069195497623337e-07
5.35145219042458333e-09
2.2710741795368059e-07
5.27890956921239199e-09
2.28110893437517166e-07
5.18719093525126964e-09
5.08093223957774684e-09
2.29067918773613525e-07
2.13845206254352162e-07
1.24314323584506172e-09
2.14600324106160055e-07
2.27697977796458146e-09
2.15416183057704573e-07
2.86613693625021968e-09
2.1630136512988607e-07
3.23916111324237263e-09
2.1729044890642734e-07
3.59619008392231604e-09
2.18359067528838385e-07
3.9072606234088269e-09
2.19458854454350094e-07
4.09425337664782509e-09
2.20568483876820474e-07
4.17991334865594454e-09
2.21688075446834603e-07
4.23002385656660206e-09
2.22812511884378522e-07
4.26698910812441752e-09
2.23930183382705046e-07
4.27594615310554613e-09
2.25032551707501408e-07
4.24908372592939317e-09
2.26115144616153209e-07
4.19631646181746779e-09
2.27173149542091772e-07
4.12918585398595818e-09
4.05303073512861922e-09
2.28201050895876483e-07
2.13638835366483186e-07
8.97785741237602512e-10
2.14311846204435443e-07
1.60396875860330104e-09
2.15123383238856912e-07
2.05459967363836622e-09
2.16009414887044565e-07
2.35312916634441419e-09
2.16982764886146225e-07
2.62283995815154771e-09
2.1802682573556685e-07
2.8631998312167873e-09
2.19096965685249865e-07
3.02411328244635807e-09
2.20170966788648398e-07
3.10591183300068345e-09
2.21250200679575682e-07
3.15078954616276197e-09
2.22335105718873444e-07
3.18208391113501431e-09
2.23417858732881265e-07
3.19319317314632918e-09
2.24489789317642275e-07
3.17715300007858429e-09
2.25545893087418124e-07
3.1402124034508025e-09
2.26582678719929229e-07
3.09240009062054798e-09
3.03956114658955724e-09
2.2759614815230235e-07
2.13652677296612416e-07
5.38580435238769809e-10
2.14224201316156253e-07
1.03244459547518187e-09
2.14920782908082184e-07
1.35801783497018159e-09
2.15705896583986263e-07
1.56801497094071225e-09
2.165828280377816e-07
1.74590839482402809e-09
2.17542838432675175e-07
1.90318982279933092e-09
2.18558006486092607e-07
2.00894515351878732e-09
2.19602450890969077e-07
2.06146673547158885e-09
2.20664426019986702e-07
2.08881371505904545e-09
2.21738248482136894e-07
2.1082613573127195e-09
2.22815501839919529e-07
2.11594017456106084e-09
2.23886302404740011e-07
2.10635229090109989e-09
2.24943972248195037e-07
2.08254201924778514e-09
2.25984725189591335e-07
2.05164715147673449e-09
2.01751912834913147e-09
2.27006767065442709e-07
2.13540134902795192e-07
2.9191727208537061e-10
2.14053883005345246e-07
5.18696402548378928e-10
2.14747606715452823e-07
6.64293913272964398e-10
2.15555814654852965e-07
7.59807015956977995e-10
2.16455638884326458e-07
8.46084007319753471e-10
2.17432969968573234e-07
9.25858592830155009e-10
2.18458028803051773e-07
9.83886348518102082e-10
2.19502199350915092e-07
1.01729632534515275e-09
2.20554576054358924e-07
1.03643713922818286e-09
2.21613267387503627e-07
1.04957007554251586e-09
2.226734161280974e-07
1.05579129961476848e-09
2.23726982431304958e-07
1.0527857577887911e-09
2.24767384584099634e-07
1.04213975402896578e-09
2.25791470948021533e-07
1.02756018306956416e-09
1.01141730494161728e-09
2.26797572554128795e-07
2.1358353003435709e-07
1.8568044131319107e-12
2.14101463181297957e-07
7.63365789920993064e-13
2.14765393222155037e-07
3.63605822526020136e-13
2.15524907964007853e-07
2.91803832528465464e-13
2.16371094551736929e-07
-1.02779474026729812e-13
2.17296970770482041e-07
-1.70060261124295834e-14
2.18280902251031273e-07
-4.48808741160961806e-14
2.19297707408116149e-07
4.90680095544387533e-13
2.20333699475972707e-07
4.44569791329692777e-13
2.21383401808252434e-07
-1.31966672684176448e-13
2.22439153466594872e-07
4.02967812977761425e-14
2.23491819089387657e-07
1.19739359079849686e-13
2.24533589719428448e-07
3.68563332920204027e-13
2.25560990806619292e-07
1.58510576745011139e-13
-1.87648798347663335e-13
2.26572595789131429e-07
2.13587671686682031e-07
-2.92345488800734779e-10
2.14106972036702444e-07
-5.1853753726290211e-10
2.14771295648074539e-07
-6.63960191460816026e-10
2.15531069618427898e-07
-7.59482238462780369e-10
2.16376708487690898e-07
-8.45741870442497347e-10
2.17302223715323623e-07
-9.25533264423206622e-10
2.18285825345941306e-07
-9.83647213788155702e-10
2.19303464832812989e-07
-1.01714887378143971e-09
2.2034014391078098e-07
-1.0362345286977902e-09
2.21389248860884078e-07
-1.04923764691065584e-09
2.22444775440737959e-07
-1.05548738252686198e-09
2.23497447207827408e-07
-1.05255208179005112e-09
2.24539769496875357e-07
-1.0419536248058355e-09
2.25567229163784575e-07
-1.02730100016462431e-09
-1.01114743523385121e-09
2.26578188490465534e-07
2.13540519883451521e-07
-5.39393773366883357e-10
2.14054613157509395e-07
-1.03263119234170417e-09
2.14748671825321094e-07
-1.35801911828840929e-09
2.15557206446916588e-07
-1.56801726006988283e-09
2.1645713290980544e-07
-1.74566867692267176e-09
2.17434656434219725e-07
-1.90305714890986298e-09
2.18459738847273969e-07
-2.00873014304629584e-09
2.19504052730149555e-07
-2.06146331519282698e-09
2.20556594582268438e-07
-2.08877694893258066e-09
2.21615326104238291e-07
-2.10796970367356123e-09
2.2267563115083424e-07
-2.11579275909464139e-09
2.23729225324359356e-07
-2.10614647585385091e-09
2.24769738669991358e-07
-2.08246729496422588e-09
2.25793920208003807e-07
-2.05148238363923475e-09
-2.01729026819788191e-09
2.26800062813797021e-07
2.13652194935177024e-07
-8.98116902147444664e-10
2.14223750731175985e-07
-1.60418729737797724e-09
2.14920357344263961e-07
-2.05462594004285796e-09
2.15705433258382021e-07
-2.3530930945670967e-09
2.16582513664341845e-07
-2.62274944351753949e-09
2.17542590175219697e-07
-2.86313452606941509e-09
2.18557883500591247e-07
-3.02402385486031771e-09
2.19602304839548009e-07
-3.10588439919332704e-09
2.2066427070084808e-07
-3.15074255179540731e-09
2.21738249481481665e-07
-3.18194884876945903e-09
2.22815534053145711e-07
-3.19307814478875483e-09
2.23886415272940347e-07
-3.17702799968362774e-09
2.24944068199076421e-07
-3.14012012100817045e-09
2.25984846687383958e-07
-3.09226131773320409e-09
-3.039355762660836e-09
2.27006911886115852e-07
2.13638637123347801e-07
-1.24327625905839628e-09
2.14311559740414669e-07
-2.27711019352555836e-09
2.15123096687634625e-07
-2.86616311296460576e-09
2.16009123119971187e-07
-3.23911967780811954e-09
2.16982502876403945e-07
-3.59612953432830553e-09
2.18026583261899643e-07
-3.90721542650502397e-09
2.19096758658633697e-07
-4.09419956629599992e-09
2.20170743958268054e-07
-4.17986973053595534e-09
2.21249967090358919e-07
-4.22996571091482137e-09
2.22334913959471556e-07
-4.26689601291288099e-09
2.23417682489475598e-07
-4.27584715813608956e-09
2.24489630617319414e-07
-4.24897643267443618e-09
2.25545718249799528e-07
-4.19620790783051445e-09
2.2658249768405903e-07
-4.12904106403481643e-09
-4.05282684886773303e-09
2.27595968482445732e-07
2.13845133426622702e-07
-1.79493032567614718e-09
2.14600189911425345e-07
-3.03216695700675636e-09
2.15416039640384183e-07
-3.68201309365414242e-09
2.16301230273810057e-07
-4.12431054851727376e-09
2.17290327408630615e-07
-4.58522698428251016e-09
2.18358952540567151e-07
-4.97584093729247335e-09
2.19458751483937163e-07
-5.19399879800115743e-09
2.20568377821461113e-07
-5.289496230220073e-09
2.21687967573808129e-07
-5.34955562057304117e-09
2.22812418736691743e-07
-5.39134744967422734e-09
2.23930099981381593e-07
-5.39352875851577777e-09
2.25032474423369485e-07
-5.35135117260422779e-09
2.2611506016096309e-07
-5.27879388344434331e-09
2.27173060207810585e-07
-5.18704139184382415e-09
-5.0807303122547885e-09
2.28200963387917576e-07
2.13989310690062718e-07
-2.49074927398714927e-09
2.15055470803091737e-07
-4.09832735202709939e-09
2.16088258321257606e-07
-4.71480088385638311e-09
2.17130759807008324e-07
-5.16681230501595187e-09
2.18260411181319822e-07
-5.71487866242436406e-09
2.19422073234693789e-07
-6.13750331268573428e-09
2.20560232180112271e-07
-6.33215802205595126e-09
2.21680861966292841e-07
-6.41012623890512624e-09
2.22799349074751826e-07
-6.46804294724760618e-09
2.23910594384407542e-07
-6.50259302826283803e-09
2.25002549194372725e-07
-6.485483873918931e-09
2.26069188879958234e-07
-6.41799114533904119e-09
2.27107414586901125e-07
-6.31701985485685727e-09
2.28110895222362997e-07
-6.1905223024203054e-09
-6.03776751068496035e-09
2.2906793214411428e-07
2.14359297408940293e-07
-3.55655254687930116e-09
2.15503233410984164e-07
-5.24226363804167857e-09
2.16532687347855812e-07
-5.74425510067670267e-09
2.17623475392632241e-07
-6.25760063125135479e-09
2.18816773262903241e-07
-6.90817682679422779e-09
2.20013533633045241e-07
-7.33426397991395648e-09
2.21160391312654597e-07
-7.47901597676834676e-09
2.22268724261626238e-07
-7.51845943496147755e-09
2.23343821207958768e-07
-7.54314013982999895e-09
2.24373251286832306e-07
-7.5320233742247577e-09
2.25347894229255767e-07
-7.46012710269246738e-09
2.26266756406476989e-07
-7.3368536029795189e-09
2.27128734778038947e-07
-7.1789984983899174e-09
2.27928115777935171e-07
-6.98990357443833312e-09
-6.76287219020248706e-09
2.28653220183213789e-07
2.15180796476491318e-07
-5.44382893743789329e-09
2.16856120004544363e-07
-6.91758745140906858e-09
2.18027886508758569e-07
-6.91602188813228761e-09
2.19117039457911515e-07
-7.34675386457538032e-09
2.20128607885732879e-07
-7.91974554222122651e-09
2.20946540776579445e-07
-8.15219715715159012e-09
2.2159762141648324e-07
-8.13009688996735312e-09
2.22136014453845067e-07
-8.0568527318029786e-09
2.22568857466466758e-07
-7.97598340966199838e-09
2.22888120348461006e-07
-7.85128652397565697e-09
2.23099879043658054e-07
-7.67188607491248311e-09
2.23217212172692767e-07
-7.45418700979449856e-09
2.23249342718577184e-07
-7.21112931843143019e-09
2.23200664308700112e-07
-6.94122543954796315e-09
-6.63005920084274847e-09
2.23067851048432244e-07
2.14976776464503036e-07
-7.12708316228392402e-09
2.15680341905003567e-07
-7.62115317669742556e-09
2.15654205684270308e-07
-6.88988594984893452e-09
2.15408223819785069e-07
-7.10077228239548352e-09
2.14772702688220243e-07
-7.28422469381405278e-09
2.13772965266769741e-07
-7.1524600153723265e-09
2.12519922122213654e-07
-6.8770540166089901e-09
2.11074518448507414e-07
-6.61144932180991112e-09
2.09459159318308037e-07
-6.36062454251949977e-09
2.07702904177755515e-07
-6.09503165158282448e-09
2.05844290902125499e-07
-5.81327307286399247e-09
2.03914983148103527e-07
-5.52487953007996833e-09
2.01938424529663328e-07
-5.23457097449694468e-09
1.99937440028242309e-07
-4.94024121072444448e-09
-4.63632078207984322e-09
1.97943701339021989e-07
2.06166501173513467e-07
1.98545347750869214e-07
1.91655461554843621e-07
1.84554689025791396e-07
1.77270464085145301e-07
1.70118003822642051e-07
1.63240949562779939e-07
1.56629500001082356e-07
1.50268875217627226e-07
1.44173843319703471e-07
1.38360569994176575e-07
1.32835690207915645e-07
1.27601118975353578e-07
1.22660877506327357e-07
1.18024556467268244e-07
1.14479034269705885e-07
3.54526269219015176e-09
1.11076603958682635e-07
3.40243017130997527e-09
1.07825227308036439e-07
3.25137650606734551e-09
1.04732735520522836e-07
3.09249163850225405e-09
1.01796054288474571e-07
2.93668107699920679e-09
9.90085349959406383e-08
2.78751913404095923e-09
9.63655171413672965e-08
2.64301769248137939e-09
9.38633952936373268e-08
2.50212168347264284e-09
9.14976784235607838e-08
2.36571670455771571e-09
8.92628847912245266e-08
2.2347934655865508e-09
8.71533607027926151e-08
2.10952391949066856e-09
8.51636780492401204e-08
1.98968248405400927e-09
8.32884318748118819e-08
1.87524600423509947e-09
8.15220623155543228e-08
1.76636938801630048e-09
7.98589471913472114e-08
1.66311495235616192e-09
7.82935651131703348e-08
1.56538190541993327e-09
7.68205504512606199e-08
1.47301448917828272e-09
7.54346678394898508e-08
1.38588243741254543e-09
7.41308035233483101e-08
1.30386414188003235e-09
7.29039963031288332e-08
1.22680704492816494e-09
7.17494720980615546e-08
1.15452402831106327e-09
7.06626580328690265e-08
1.08681388620380642e-09
6.96391823369093045e-08
1.02347551059888406e-09
6.86748748842797296e-08
9.64307254634454025e-10
6.77657719399525038e-08
9.09102714516061282e-10
6.69081200544471103e-08
8.5765158798320471e-10
6.60983754149317396e-08
8.09744209159468771e-10
6.53331997644568309e-08
7.65174961845646664e-10
6.46094552432685796e-08
7.23743334765130226e-10
6.39241989815065223e-08
6.85254131084643246e-10
6.32746768932888922e-08
6.49518202923438463e-10
6.26583162078229341e-08
6.16353594371727823e-10
6.20727168832555616e-08
5.85586474848528604e-10
6.15156422890801338e-08
5.57051574725129889e-10
6.09850092263866474e-08
5.30592387546299844e-10
6.04788770751412314e-08
5.06061335449193359e-10
5.99954357783663075e-08
4.83319904807840704e-10
5.95329922349539216e-08
4.62238741944301647e-10
5.90899546913468889e-08
4.42697596452193548e-10
5.86648145495699811e-08
4.24585159664730439e-10
5.82561249542951866e-08
4.07798853708314972e-10
5.78624757045184245e-08
3.92244494412287811e-10
5.74824645981375572e-08
3.77835664868556693e-10
5.71146660752175497e-08
3.64492668898397156e-10
5.67575985335951437e-08
3.52141162725680508e-10
5.64096916634745062e-08
3.40710380376223655e-10
5.60692568958193447e-08
3.301301993344104e-10
5.57345035623044164e-08
3.20307466431405787e-10
5.54037002049764027e-08
3.11155289321739191e-10
5.50751637881316501e-08
3.02386240336341592e-10
5.47486318202880946e-08
2.93982487107061415e-10
5.44255660334309555e-08
2.86325218021039081e-10
5.41043986725343733e-08
2.78888387219702258e-10
5.37863606204494352e-08
2.7166300172426186e-10
5.34712376985401726e-08
2.64478002120868223e-10
5.31605739070805637e-08
2.57622734861229667e-10
5.28538627828489069e-08
2.50673367728741115e-10
5.25533434614247128e-08
2.43844008498667223e-10
5.22593397580588037e-08
2.36845417158259089e-10
5.19726752339843587e-08
2.29727317973980007e-10
5.16939233708771328e-08
2.22595627617724705e-10
5.14230637588282038e-08
2.15570332083587295e-10
5.11602846106252848e-08
2.08363841097090588e-10
5.0905752072904152e-08
2.00801876148531515e-10
5.06598535779306869e-08
1.93064061623747808e-10
5.04232496680452547e-08
1.84697509219290772e-10
5.01966814183558827e-08
1.75024997696729282e-10
4.99820589152675615e-08
1.63197129655258625e-10
4.97813120565742779e-08
1.49183270563552344e-10
4.95881372495562824e-08
1.41140274429675822e-10
4.93739632857494705e-08
1.62762651773166934e-10
4.90666453001556089e-08
2.55772157526351371e-10
4.86697171214020667e-08
3.46837209048607148e-10
4.85706261046372012e-08
4.85965936328910699e-11
-1.93651954432389254e-10
1.96340839921659643e-07
5.14784135119223764e-09
1.94710885806309597e-07
5.03238414874673951e-09
1.93068433804530582e-07
4.89382836489178193e-09
1.91435788733280889e-07
4.72513655897049976e-09
1.89821048905392755e-07
4.55142075000902435e-09
1.88223653404702989e-07
4.384914474534924e-09
1.86644692198196719e-07
4.22197873544115919e-09
1.85088640940138083e-07
4.05817277767481912e-09
1.83559599795667293e-07
3.8947576831228892e-09
1.82059529690293592e-07
3.73486340343590924e-09
1.80589268453537594e-07
3.57978498770591127e-09
1.79149646648490118e-07
3.42930412049356904e-09
1.77741595894438725e-07
3.28329658673796273e-09
1.76365773861524255e-07
3.14219125059080783e-09
1.75022417744923543e-07
3.00647089584037643e-09
1.73711482026161818e-07
2.8763174506564264e-09
1.72432787018861876e-07
2.75170932342322666e-09
1.71186049748324016e-07
2.63261953366210655e-09
1.69970862388841204e-07
2.51905132668713155e-09
1.68786693569768557e-07
2.41097568763876198e-09
1.67632919039043772e-07
2.30829838417063824e-09
1.66508853622520878e-07
2.21087912769031959e-09
1.65413766238188497e-07
2.11856271887368512e-09
1.64346887191194126e-07
2.03118612359967866e-09
1.63307417382762832e-07
1.94857234281461408e-09
1.62294539779853871e-07
1.8705290045194012e-09
1.61307429386524848e-07
1.7968544096428001e-09
1.60345260130660379e-07
1.72734400827996087e-09
1.59407209864085398e-07
1.66179335829948456e-09
1.58492464710630603e-07
1.59999898194548234e-09
1.57600222914957809e-07
1.54175957987833378e-09
1.56729697813501177e-07
1.48687806719962245e-09
1.55880119782013956e-07
1.43516350017190252e-09
1.55050737371986062e-07
1.38643230561942176e-09
1.54240817841759329e-07
1.34050906183189973e-09
1.53449647111197616e-07
1.2972271826249482e-09
1.52676529083540792e-07
1.25642960786700094e-09
1.51920784308337766e-07
1.21796944460384934e-09
1.51181747967837573e-07
1.18171041280420722e-09
1.50458767121457311e-07
1.14752718478064622e-09
1.49751197202616371e-07
1.11530559781301055e-09
1.49058397680051567e-07
1.08494271954009781e-09
1.48379726818705937e-07
1.05634657196814226e-09
1.47714535438825724e-07
1.02943544268144665e-09
1.47062159969286474e-07
1.00413653312988999e-09
1.46421915966027254e-07
9.80383525795387271e-10
1.45793097034765377e-07
9.58111163971202625e-10
1.4517498072889907e-07
9.3723931528679604e-10
1.44566739807246757e-07
9.17656869803781001e-10
1.4396749129952508e-07
8.99194311839447584e-10
1.43376402421390185e-07
8.81787455033610879e-10
1.42792965093540633e-07
8.65288869173929824e-10
1.42216658795538544e-07
8.49716089877225503e-10
1.41646741458805174e-07
8.34756989941636465e-10
1.41082703325472623e-07
8.20338433791437881e-10
1.40524511340698882e-07
8.06048584460633084e-10
1.39971850776681424e-07
7.9202459144693648e-10
1.39423627896206772e-07
7.78156448496613541e-10
1.38881789936839233e-07
7.64386100877254282e-10
1.38345700180445319e-07
7.50447981615749288e-10
1.37813610857387879e-07
7.36346869269204707e-10
1.37286816951788924e-07
7.21872418227531069e-10
1.36769037588746132e-07
7.07264969038961307e-10
1.36257717968699258e-07
6.92579979387470807e-10
1.35748321557648381e-07
6.77492579289604696e-10
1.35245883674087393e-07
6.62761980454769244e-10
1.34750169916843778e-07
6.49991694171789288e-10
1.34245539544755997e-07
6.41022840889564052e-10
1.33725347447003827e-07
6.40883805127727705e-10
1.33182618353029276e-07
6.59641567945913539e-10
1.32604389968350031e-07
7.12202961075064343e-10
1.32047849243607708e-07
7.79324634306958948e-10
1.318604535212196e-07
5.05077871844084818e-10
1.31720335419915646e-07
1.57469522095353422e-10
8.45015480668000633e-11
2.2292537637153563e-07
5.29012188446483063e-09
2.2274623154238187e-07
5.21152883850477291e-09
2.22524966125241946e-07
5.11509363615197486e-09
2.22265099479504373e-07
4.98500305325794575e-09
2.21973472502498527e-07
4.84304756766534463e-09
2.21653369547038674e-07
4.705017267421793e-09
2.2130646495727312e-07
4.56888316055685557e-09
2.2093540952101628e-07
4.42922804779059005e-09
2.20543435710332214e-07
4.28673132659263427e-09
2.20133187539234217e-07
4.14511140675233407e-09
2.19706713241492205e-07
4.00625911613263697e-09
2.19265917012027672e-07
3.87010018002939643e-09
2.18812757976063336e-07
3.73645545235758379e-09
2.18349105523855417e-07
3.60584353062630997e-09
2.17876595853435748e-07
3.47898039534314442e-09
2.1739664905405335e-07
3.35626407693125932e-09
2.16910550402632146e-07
3.23780780139818435e-09
2.16419484577823969e-07
3.1236851832956857e-09
2.15924520375497172e-07
3.0140153550760547e-09
2.15426600423877381e-07
2.90889546435834454e-09
2.14926554697801518e-07
2.80834393329943587e-09
2.14425119032880705e-07
2.71231461738011098e-09
2.13922946988900185e-07
2.62073458571053818e-09
2.13420614883811798e-07
2.53351805130899631e-09
2.12918626842218699e-07
2.45056020775347524e-09
2.12417422283526317e-07
2.3717333857073872e-09
2.11917383806907611e-07
2.29689270876930682e-09
2.11418843521687653e-07
2.22588411391438087e-09
2.10922088075228797e-07
2.15854862218682257e-09
2.1042736326985697e-07
2.09472360036147657e-09
2.09934878538093655e-07
2.03424411584776379e-09
2.09444811044323709e-07
1.97694534969543877e-09
2.08957309201063644e-07
1.92266510433387967e-09
2.0847249562510175e-07
1.87124559044828074e-09
2.07990469731458563e-07
1.82253457375360107e-09
2.07511310007944187e-07
1.77638636994388662e-09
2.07035075965998283e-07
1.73266284882602802e-09
2.06561809824219798e-07
1.69123433952512084e-09
2.06091537951361021e-07
1.6519803035512818e-09
2.05624272178138807e-07
1.61478977676744643e-09
2.05160011063355794e-07
1.57956160701212086e-09
2.04698741198603404e-07
1.54620443595135273e-09
2.04240438681792974e-07
1.51463620545015149e-09
2.03785070995100326e-07
1.48478300040345056e-09
2.03332599512013589e-07
1.45657697003548635e-09
2.02882982934790264e-07
1.42995289003102078e-09
2.0243618083465514e-07
1.40484245197017861e-09
2.01992149590254788e-07
1.38116547980018793e-09
2.01550828445508533e-07
1.35882170318404358e-09
2.01112095242546993e-07
1.33768900483463892e-09
2.00675900291498631e-07
1.31767985824859264e-09
2.00242134182954627e-07
1.29867397653298369e-09
1.99810774830588189e-07
1.28052855628638807e-09
1.99381732011134975e-07
1.26304082954072057e-09
1.98955056223667244e-07
1.24608680574895923e-09
1.98530473950235587e-07
1.22943647754892248e-09
1.9810799710669434e-07
1.21302163370065286e-09
1.97687447527652711e-07
1.19673094961357839e-09
1.97269442087261685e-07
1.18050371139409525e-09
1.96853164764566093e-07
1.16412357251047733e-09
1.96439045830284255e-07
1.14736378814923899e-09
1.96028264802091329e-07
1.13008871047567664e-09
1.95619766405959227e-07
1.11199544205151715e-09
1.95214502064615708e-07
1.09277318070115038e-09
1.94815635280279326e-07
1.07257673610122127e-09
1.94422418029142433e-07
1.05100507353483768e-09
1.94038086695225586e-07
1.02797935866096917e-09
1.93669072404374464e-07
1.00459743056376779e-09
1.93320836162273806e-07
9.81963864581855589e-10
1.93011140223787175e-07
9.62550128692157462e-10
1.92769246864693891e-07
9.46577800720284242e-10
1.92612227917548845e-07
9.26961567142900417e-10
1.92210003641721647e-07
8.9904359376670371e-10
1.91576970754601766e-07
7.83559065148100901e-10
6.25442275610643717e-10
2.29196136495054626e-07
4.74710827696176597e-09
2.29721323972128282e-07
4.68634122498370842e-09
2.30217185689411086e-07
4.61923177568404086e-09
2.30676199019466459e-07
4.52598956837369586e-09
2.31100388192629774e-07
4.41885823042230502e-09
2.3149287980804744e-07
4.31252548413635297e-09
2.31854026627469958e-07
4.20773617232533487e-09
2.32183639120069697e-07
4.09961538766108674e-09
2.32482749267102649e-07
3.98762101151934351e-09
2.32753053212021241e-07
3.87480729267389515e-09
2.32996024487791092e-07
3.7632876698803507e-09
2.33212901370212052e-07
3.65322312747089777e-09
2.33404948999068097e-07
3.54440765097489174e-09
2.33573523172429876e-07
3.43726918537770065e-09
2.33719964347441619e-07
3.33253904772266864e-09
2.33845527308484972e-07
3.23070094254621916e-09
2.33951405663642918e-07
3.13192927150731975e-09
2.34038763541959165e-07
3.03632713016139186e-09
2.34108730823803091e-07
2.94404789819780147e-09
2.34162385366587439e-07
2.85524074583599139e-09
2.34200746934018571e-07
2.76998218927902898e-09
2.3422478110714593e-07
2.6882802677603658e-09
2.3423540293472813e-07
2.61011258148528604e-09
2.34233476303517008e-07
2.53544450579891109e-09
2.34219812496030351e-07
2.4642238383979399e-09
2.34195170941263399e-07
2.39637476263506922e-09
2.34160261637465397e-07
2.33180183501883465e-09
2.34115747545340867e-07
2.27039802796263146e-09
2.34062246477483895e-07
2.21204951291834957e-09
2.34000332969534787e-07
2.15663693034288692e-09
2.33930540479555516e-07
2.1040364273456859e-09
2.33853363758869433e-07
2.05412189139843514e-09
2.33769261159900684e-07
2.00676752175299363e-09
2.33678656813337825e-07
1.96184975232401535e-09
2.33581942733383421e-07
1.91924846321885065e-09
2.3347948088674478e-07
1.87884801561455087e-09
2.33371605219823635e-07
1.84053829730696153e-09
2.33258623640915282e-07
1.80421567061054692e-09
2.3314082000115643e-07
1.76978364533819783e-09
2.33018456122283303e-07
1.73715327305795937e-09
2.32891773946078537e-07
1.70624326713581928e-09
2.32760997867784584e-07
1.67697978335110614e-09
2.32626337296188826e-07
1.64929570819308971e-09
2.32487989467633229e-07
1.62312923525802448e-09
2.32346142459130338e-07
1.59842158015309495e-09
2.32200978139832621e-07
1.57511359786014048e-09
2.32052674110995411e-07
1.55314106482366677e-09
2.31901402477468299e-07
1.53242904713970225e-09
2.31747324593823302e-07
1.51288766582399801e-09
2.31590582841918686e-07
1.49441335554594951e-09
2.31431336753541981e-07
1.47690145611999397e-09
2.3126974039842065e-07
1.46023999778680415e-09
2.31105929051516768e-07
1.44428813478738403e-09
2.30939992952302545e-07
1.42890035106500538e-09
2.30772054149000673e-07
1.41393996716476881e-09
2.30602124083685521e-07
1.39926264328395021e-09
2.30430255661396946e-07
1.38473402992498257e-09
2.30256479880006045e-07
1.37026260205726455e-09
2.30081046423985269e-07
1.35576002708050492e-09
2.29903812677372775e-07
1.34104913206467537e-09
2.29724763979153452e-07
1.32594109676884808e-09
2.29544329249008452e-07
1.31019948867128271e-09
2.29362352074584526e-07
1.29350784900045702e-09
2.29178622298492818e-07
1.27577588750583663e-09
2.28993493983471988e-07
1.25697962118023422e-09
2.28806166426435519e-07
1.23762419523258529e-09
2.28614186193448347e-07
1.21905265866727276e-09
2.28414007347022485e-07
1.20373291084751444e-09
2.2820016120694703e-07
1.19455544688059919e-09
2.27970041260238259e-07
1.19143926967145774e-09
2.27733711243392168e-07
1.18154532332112039e-09
2.27536870975887979e-07
1.12207580129206544e-09
2.27478375412501714e-07
9.55758355865848441e-10
2.27491011796682366e-07
7.69147513754136409e-10
6.65651108137024604e-10
2.2981560201405279e-07
3.99942490699824219e-09
2.30552780570959614e-07
3.9491625339729571e-09
2.31277249668826205e-07
3.89476253368321544e-09
2.31978969649016691e-07
3.82426942935572413e-09
2.32655097938209713e-07
3.74272976717034868e-09
2.33307434350269695e-07
3.66018889579182949e-09
2.33936468219222359e-07
3.57870213065807371e-09
2.34541154338985271e-07
3.4949290985049072e-09
2.3512110311425742e-07
3.40767206662182167e-09
2.35676883851399136e-07
3.31902638634607369e-09
2.36209144901844357e-07
3.23102644917804496e-09
2.36718289706205096e-07
3.14407815083495321e-09
2.3720472215354506e-07
3.05797503229255527e-09
2.3766903695154295e-07
2.97295421471140787e-09
2.38111963291111228e-07
2.88961253467572797e-09
2.38534236708084358e-07
2.80842735027403126e-09
2.38936595239165448e-07
2.72957056605696027e-09
2.39319797742420308e-07
2.65312445233583336e-09
2.39684626756219089e-07
2.57921870918781199e-09