/*--------------------------------*- C++ -*----------------------------------*\
  =========                 |
  \\      /  F ield         | OpenFOAM: The Open Source CFD Toolbox
   \\    /   O peration     | Website:  https://openfoam.org
    \\  /    A nd           | Version:  8
     \\/     M anipulation  |
\*---------------------------------------------------------------------------*/
FoamFile
{
    version     2.0;
    format      ascii;
    class       volScalarField;
    location    "0.5";
    object      rho;
}
// * * * * * * * * * * * * * * * * * * * * * * * * * * * * * * * * * * * * * //

dimensions      [1 -3 0 0 0 0 0];

internalField   nonuniform List<scalar> 
1800
(
0.853174338349090733
0.853174053713616209
0.853173907523008368
0.853173885527764519
0.853173863507005081
0.853173810808626976
0.853173751585774798
0.853173702810676726
0.853173662132421406
0.853173621848791419
0.853173579491430467
0.85317353686851749
0.853173495643606228
0.853173455709409057
0.85317341629089205
0.853174090111295746
0.853173995284512543
0.853173903738669193
0.853173867077741677
0.853173841347659723
0.853173797553607449
0.853173744980245119
0.853173698348052567
0.853173658538697421
0.853173619448371112
0.853173578368438656
0.853173536753917161
0.853173496351390503
0.853173457296403259
0.853173418950109674
0.853174081500495785
0.853174009497613128
0.853173919129677993
0.853173867431511135
0.853173838341370727
0.853173800047637099
0.853173750888682303
0.853173703815214735
0.853173662965656665
0.853173623889473265
0.853173583347519471
0.853173542109248229
0.853173501863687345
0.853173462987116826
0.853173425141363406
0.853173977706521147
0.85317393936301511
0.85317388462830257
0.853173845473809589
0.853173818227061287
0.853173784351740294
0.85317374094763665
0.853173697260065644
0.853173657914844563
0.853173620249143227
0.853173581346479803
0.853173541512257549
0.853173502304012676
0.853173464340432508
0.853173427479684165
0.853173968110167213
0.853173943985414795
0.853173896935762399
0.85317385228551279
0.85317381832549144
0.853173784257428625
0.853173743817332464
0.853173701410091412
0.853173661536139161
0.853173623449111962
0.853173584851256828
0.853173545503141395
0.853173506570645612
0.853173468754906072
0.853173432056912873
0.85317391862259162
0.853173898707791034
0.853173863460295334
0.853173829336469458
0.853173800889889367
0.853173770918510876
0.853173734770963033
0.853173695468780635
0.853173657153855847
0.853173620164171975
0.853173582850840773
0.853173544729231126
0.853173506664621439
0.853173469412820351
0.853173433104957968
0.853173912211911856
0.853173900616046477
0.853173872648755327
0.853173838154662634
0.85317380538840204
0.853173773010803993
0.853173737209320548
0.853173698632240018
0.853173660149864399
0.853173622678740307
0.853173585268202861
0.853173547336748994
0.853173509406759734
0.853173472140409284
0.853173435780857359
0.853173888496222665
0.853173875559947614
0.853173849486811853
0.853173819571685588
0.853173791173151508
0.853173762308252037
0.853173729625364308
0.853173693524880927
0.853173656509618961
0.853173619918334403
0.853173583390064771
0.853173546351214229
0.85317350912019263
0.853173472239148745
0.853173436111268058
0.853173887660871877
0.853173879414560021
0.853173858371366944
0.853173829287850793
0.853173798509957337
0.853173767124789539
0.853173733335016893
0.853173696740401555
0.853173659219762626
0.8531736221300108
0.853173585231984388
0.853173548054103503
0.853173510650205857
0.85317347370110197
0.853173437439511906
0.853173878945060915
0.853173868593178897
0.853173845807076559
0.853173817269496149
0.85317378877767025
0.853173759917119523
0.853173728189825065
0.853173693100769404
0.853173656574970796
0.853173620160452062
0.85317358384931552
0.853173547237484509
0.853173510232990373
0.853173473504335145
0.853173437361644305
0.85317387867357386
0.853173868440616712
0.853173845624925486
0.853173817099986964
0.853173788548839407
0.853173759816661104
0.853173727981290431
0.853173692820125451
0.85317365630890396
0.853173619970832076
0.85317358373695118
0.853173546955381501
0.853173509946008046
0.853173473194519749
0.853173437152357605
0.853173887557186372
0.853173879318166795
0.853173858233393312
0.853173829183561216
0.853173798331319122
0.853173766986403681
0.853173733165185189
0.853173696622429811
0.853173659109114135
0.853173621970982898
0.853173585091799414
0.853173547863636639
0.853173510514034339
0.853173473500091206
0.853173437269692525
0.853173888479455078
0.853173875564938289
0.85317384949101216
0.853173819514707943
0.853173791196010112
0.853173762360124877
0.853173729645589685
0.853173693416253487
0.853173656401696623
0.853173619935563177
0.853173583432378591
0.853173546356559953
0.853173509034345634
0.853173472227211183
0.853173436127672158
0.853173912201180773
0.853173900612297254
0.853173872644624187
0.853173838133899687
0.853173805394169649
0.853173773027764426
0.853173737205427329
0.853173698576570327
0.853173660093618613
0.853173622671993148
0.85317358527855669
0.853173547330949078
0.853173509370023786
0.853173472127787047
0.853173435785780865
0.853173918614082094
0.853173898701180544
0.853173863453421055
0.853173829325587163
0.853173800887896405
0.853173770919240737
0.853173734759450797
0.853173695435469392
0.853173657119871032
0.85317362015028031
0.853173582846590395
0.85317354471918716
0.85317350664431757
0.853173469401350304
0.853173433102908718
0.8531739681019328
0.853173943977772353
0.853173896928144271
0.853173852277069322
0.853173818319601485
0.853173784250985667
0.853173743803827156
0.853173701386881533
0.853173661512372505
0.853173623433714279
0.85317358484101613
0.853173545491477392
0.85317350655603974
0.853173468744136687
0.853173432051024472
0.853173977698269637
0.853173939354865518
0.853173884620107681
0.853173845465360459
0.853173818218980973
0.853173784342254993
0.853173740933921732
0.853173697241661144
0.853173657895994308
0.85317362023391019
0.853173581334037978
0.853173541499950394
0.853173502291293739
0.853173464329764153
0.853173427471557333
0.853174081492093839
0.853174009489190199
0.853173919121125279
0.85317386742265966
0.85317383833204874
0.853173800036809205
0.853173750875162229
0.853173703799158689
0.853173662949207823
0.853173623874645792
0.853173583334277952
0.853173542096607673
0.853173501851446914
0.853173462976120955
0.853173425131707908
0.853174090102718163
0.853173995275850361
0.853173903729805949
0.853173867068482861
0.85317384133767793
0.853173797542238321
0.853173744966961078
0.853173698333160035
0.853173658523434963
0.853173619433900354
0.853173578354970874
0.853173536741121175
0.85317349633919648
0.853173457285078429
0.853173418939540129
0.853174338340424998
0.85317405370485222
0.853173907513992691
0.853173885518236252
0.853173863496664464
0.853173810797003385
0.853173751572590233
0.853173702796234501
0.853173662117608367
0.853173621834454221
0.853173579477859101
0.853173536855622361
0.853173495631331935
0.853173455697799565
0.853173416279693897
0.85317338545074628
0.853173361335027081
0.853173333827820901
0.853173303150256523
0.853173273332169413
0.853173245894424337
0.853173219793901483
0.853173194002111113
0.853173168501708323
0.853173143689465285
0.853173119724051632
0.85317309649305173
0.853173073869513909
0.853173051828436502
0.853173030391360276
0.853173009556566386
0.853172989292752648
0.853172969564907846
0.85317295034759455
0.853172931619518349
0.853172913353934637
0.853172895511185692
0.853172878025719839
0.853172860774173203
0.853172843512284507
0.853172825776719379
0.853172806780818194
0.853172785055170468
0.853172757759794953
0.853172719668367829
0.853172661306759283
0.853172565779352743
0.853172403458847151
0.853172123275822036
0.853171638723657422
0.853170805851623082
0.853169389434764502
0.853167012217609599
0.853163080765412252
0.853156680321974115
0.853146430681604451
0.853130296104002928
0.853105345174251073
0.853067460351437323
0.853010997291872575
0.852928379087904531
0.852809551313925773
0.852641001414080835
0.85241196567535793
0.852093316662197342
0.851711399053299067
0.851243553136654008
0.850736137740335185
0.850147036672034728
0.849545621743526325
0.848886943467066502
0.848240399126622302
0.847558795510327867
0.846926312354184807
0.84628377023598389
0.845693720412433403
0.845120595822742016
0.844586453607660492
0.844068978741880027
0.843585798935053588
0.843118493432931881
0.842682941085949766
0.842242832471705283
0.841831867624333818
0.841388789997294828
0.840985972289910011
0.8405718412774007
0.840172476165739979
0.839736967012384761
0.839153419064683548
0.853173387811397954
0.853173362881515573
0.853173335637168684
0.85317330561003013
0.853173276137494607
0.853173248762269076
0.853173222711840262
0.853173197015482443
0.853173171578438971
0.853173146759936274
0.853173122747255985
0.853173099460594275
0.853173076775300077
0.853173054656898855
0.853173033126574998
0.85317301219013908
0.853172991821972371
0.853172971988084172
0.853172952663161732
0.853172933828579949
0.85317291546456564
0.853172897547513243
0.853172880051427662
0.853172862948023081
0.853172846202621904
0.853172829766036034
0.853172813565404087
0.853172797490790447
0.853172781341181796
0.853172764761618851
0.853172747120545139
0.853172727298698863
0.853172703331672277
0.853172671814932393
0.853172626930906119
0.853172558887232202
0.853172451457528735
0.853172278186206112
0.853171996655175735
0.853171540017675256
0.853170804797596771
0.853169633757356882
0.853167792482115162
0.853164938214118429
0.853160579263909424
0.853154022193566841
0.853144296903400878
0.853130009496180675
0.853109531473632554
0.853079510296304022
0.85304044581750138
0.852983391203477215
0.852920752901527135
0.852831984501089213
0.852738071987960033
0.852606015469383638
0.852483411536740787
0.852315157030994031
0.852151562962914833
0.851956343609307387
0.851763032427171329
0.851517737471255476
0.851293921616239735
0.851060816663420039
0.850817448843110502
0.850522576263796792
0.850287081374040077
0.850032462283200063
0.849718445127084165
0.849452148836373433
0.849189655367593277
0.848859117092120141
0.84853753634639173
0.848194387437957498
0.84780111570194272
0.853173392605646952
0.85317336573357494
0.853173338715548124
0.853173309624100762
0.853173280443958126
0.853173252829770079
0.853173226551708019
0.85317320078239467
0.853173175289954622
0.853173150348119913
0.853173126175554963
0.853173102738360334
0.853173079915737209
0.853173057657822143
0.853173035980943295
0.853173014896959181
0.85317299438521832
0.853172974411569029
0.853172954949167894
0.853172935979692904
0.853172917485093496
0.853172899443564225
0.853172881831497643
0.853172864626140282
0.853172847805800827
0.85317283134840205
0.853172815230130999
0.853172799425073403
0.853172783901160248
0.853172768615509836
0.85317275350511379
0.853172738470709624
0.853172723349499895
0.853172707869560343
0.853172691574793141
0.853172673703509465
0.853172652995459857
0.853172627390651583
0.853172593568055304
0.853172546252880415
0.853172477197647439
0.853172373715167853
0.853172216611221113
0.853171977328058051
0.853171614051453253
0.853171066401080869
0.853170247980804763
0.853169035350717198
0.853167251996881371
0.853164640081456538
0.853161054902810356
0.853155895274192
0.853149349247822264
0.853139735895494855
0.853129200716524538
0.853113986067151608
0.85309806938529098
0.853075872912509081
0.853052863671548645
0.853024506298704188
0.852988961375412358
0.852951257239848659
0.852911637514162768
0.85285748588385446
0.852807465404303078
0.852754767138090175
0.852683404934842182
0.852621749838011422
0.852549084643153932
0.852465259487670823
0.852390975580433308
0.852292782328879506
0.852192096847329106
0.852098705994904226
0.851987906585565558
0.853173394080938619
0.853173366390383103
0.853173340346325304
0.853173312618042079
0.853173283989179021
0.853173256347363629
0.85317323008709478
0.853173204530933926
0.853173179258907899
0.853173154421129731
0.853173130268963575
0.853173106833866157
0.853173084008372218
0.853173061723771609
0.853173039987560777
0.85317301881992702
0.853172998210687594
0.853172978129477899
0.853172958549567428
0.853172939453922696
0.853172920827474646
0.853172902651237797
0.85317288490339882
0.85317286756263222
0.853172850609247302
0.853172834024342297
0.853172817788972804
0.853172801884241827
0.853172786291486962
0.853172770992154383
0.853172755967123275
0.853172741195513007
0.853172726652833724
0.85317271230793279
0.853172698117883987
0.853172684019599448
0.853172669916382187
0.853172655656734058
0.853172641001487264
0.853172625573654031
0.853172608783238751
0.853172589716503338
0.853172566975781699
0.853172538451654749
0.853172501003774286
0.853172450018922723
0.85317237880376251
0.853172277759021158
0.853172133317404491
0.853171926616754783
0.853171632587182649
0.853171212850945659
0.853170626202140236
0.853169764038307354
0.853168755730827844
0.853167320711032184
0.853165622615679964
0.85316322323541649
0.853160501650849223
0.853157304259650973
0.853152999813793333
0.853147431329805861
0.853142333462844515
0.853135475904955976
0.85312609856429189
0.85311832299841317
0.853108007376459532
0.853096318584063873
0.853083460661634652
0.853068301339126367
0.853053650002367991
0.853035653578983699
0.853015938002845031
0.852992284464999528
0.852963107023225975
0.853173398143152406
0.853173369712846186
0.853173343785728511
0.853173316503137658
0.853173287928881474
0.853173260030060221
0.853173233598584657
0.853173208047388165
0.853173182791001961
0.853173157872480714
0.853173133580212739
0.853173110012178104
0.85317308707419004
0.853173064676373105
0.853173042814543425
0.853173021515479912
0.853173000778451041
0.853172980574904427
0.853172960875327013
0.8531729416613405
0.853172922919035126
0.853172904630857709
0.853172886775358741
0.853172869330996231
0.853172852278099914
0.853172835598164814
0.853172819272758343
0.853172803283460124
0.853172787612395123
0.85317277224255117
0.853172757157683703
0.853172742342094281
0.853172727780482587
0.853172713457794996
0.853172699358909492
0.853172685468041259
0.85317267176775935
0.853172658237478787
0.853172644851120432
0.853172631573507201
0.853172618354901768
0.853172605122836436
0.85317259177011695
0.853172578137437632
0.853172563988541577
0.853172548975145606
0.853172532587967436
0.853172514089079903
0.853172492420157469
0.853172466081524306
0.853172432981592621
0.853172390135693681
0.853172333351727263
0.853172256834193177
0.853172158844689332
0.853172029825104095
0.853171858284931139
0.853171622633460247
0.853171334399606573
0.853171006738050797
0.853170553523821207
0.853169913733197838
0.853169311745201164
0.853168504195990884
0.853167376986909476
0.853166253211728565
0.853165010960356018
0.853163329780367352
0.853161349934348556
0.853159261363840682
0.853157010357017187
0.853153978469185503
0.853150888753521852
0.853147208134974244
0.853142076671195237
0.853173398979761743
0.853173370439451961
0.853173344848762172
0.853173318136868475
0.853173289972615212
0.85317326224691703
0.853173235936475094
0.853173210557329531
0.853173185466909789
0.853173160643421635
0.85317313639097081
0.853173112851509541
0.853173089942268037
0.853173067558083309
0.85317304568522434
0.853173024356419174
0.853173003579114853
0.853172983326708323
0.853172963568120113
0.853172944285004342
0.853172925465888077
0.853172907095880451
0.853172889155075831
0.853172871622765672
0.853172854480178877
0.853172837709897824
0.8531728212944788
0.853172805216221519
0.853172789457804948
0.853172774002746603
0.85317275883537802
0.853172743940654121
0.853172729304104926
0.853172714911900942
0.85317270075088969
0.853172686808542857
0.853172673072842391
0.853172659532142275
0.853172646174991223
0.853172632989858237
0.853172619964711942
0.853172607086395418
0.853172594339723367
0.853172581706176825
0.853172569162034544
0.853172556675709237
0.853172544204005678
0.853172531686923863
0.853172519040497623
0.853172506147009013
0.853172492841634211
0.853172478893735708
0.853172463984212537
0.853172447682970958
0.853172429455008707
0.853172408589095155
0.853172383955308256
0.853172353883132062
0.853172318397397933
0.853172277973086035
0.85317222537583326
0.853172154243623138
0.853172082538260379
0.853171989040044099
0.853171863462967583
0.853171717436746913
0.853171572491195018
0.853171377848497392
0.853171111506044078
0.853170855277605944
0.853170562118327869
0.853170170717590493
0.853169733318482004
0.853169194518018426
0.853168378744459832
0.85317340160849453
0.853173372889577286
0.853173347258074144
0.853173320673162427
0.853173292588455201
0.853173264781735829
0.853173238342724627
0.853173212891369714
0.853173187766909646
0.853173162890900172
0.85317313855621657
0.853173114928440279
0.85317309193834534
0.853173069474482682
0.853173047515190408
0.853173026094517839
0.853173005225774661
0.853172984885167018
0.853172965040844056
0.853172945673827732
0.853172926773529849
0.853172908326153667
0.853172890312073995
0.853172872710279973
0.853172855501750038
0.853172838669064348
0.853172822194812719
0.85317280606120538
0.853172790250745106
0.853172774746793983
0.853172759533568414
0.853172744595916743
0.853172729919255635
0.853172715489653011
0.853172701293905766
0.853172687319524781
0.853172673554672634
0.853172659988117532
0.853172646609205887
0.853172633407823011
0.853172620374323731
0.853172607499437352
0.853172594774164961
0.853172582189652862
0.853172569737032038
0.85317255740720066
0.853172545190548859
0.853172533076592132
0.853172521053482513
0.853172509107312904
0.853172497221129089
0.85317248537349466
0.853172473536618181
0.85317246167422689
0.85317244973931361
0.853172437668099914
0.853172425370842702
0.853172412729989893
0.853172399652606939
0.853172386058876575
0.853172371514498207
0.853172355475949273
0.853172339067621133
0.85317232063133619
0.853172299310975935
0.853172275176192207
0.853172250908785568
0.853172221198521985
0.853172183069976553
0.853172143295118368
0.853172097781756289
0.853172041060822117
0.853171973334426292
0.853171900434729125
0.853171797279837718
0.853173401935120257
0.853173373274880298
0.853173347793752979
0.853173321438814969
0.853173293575653524
0.85317326587032527
0.853173239502937109
0.853173214150112491
0.853173189143113908
0.853173164358825065
0.853173140074790837
0.853173116475811177
0.853173093510326219
0.853173071066335886
0.853173049114967719
0.853173027689684726
0.853173006808688239
0.853172986451397164
0.853172966585987624
0.8531729471925662
0.85317292826056057
0.853172909777116462
0.8531728917234499
0.853172874079027199
0.853172856825319181
0.853172839945597894
0.85317282342317402
0.853172807240828446
0.85317279138148816
0.853172775828877294
0.853172760567549204
0.853172745582636116
0.853172730859766193
0.853172716385160679
0.853172702145734374
0.853172688129088863
0.85317267432345556
0.853172660717656628
0.853172647301096099
0.853172634063756097
0.853172620996149766
0.853172608089265871
0.853172595334531159
0.853172582723780271
0.853172570249227546
0.853172557903433493
0.853172545679283467
0.853172533569977243
0.853172521569016129
0.853172509670181878
0.853172497867476176
0.853172486155007737
0.853172474526830982
0.853172462976790391
0.853172451498340645
0.853172440084236428
0.853172428726057142
0.853172417413749939
0.853172406135647821
0.853172394877584006
0.853172383619839936
0.85317237233035903
0.853172361065508977
0.853172349736605495
0.853172338298433419
0.853172326802256187
0.853172315396951819
0.853172303742832261
0.853172291634419544
0.853172279595006966
0.853172267583854227
0.853172254795291019
0.853172239503873331
0.853172222230285549
0.853172199952262234
0.853173403241109019
0.853173374517009031
0.853173348985073243
0.853173322634347864
0.853173294748000632
0.853173267049628925
0.853173240626594609
0.853173215233098525
0.85317319019402893
0.853173165365258557
0.853173141019599068
0.853173117355781385
0.853173094334384929
0.853173071840394259
0.853173049838381936
0.853173028360471264
0.853173007427898367
0.853172987022042806
0.853172967110236491
0.853172947671532067
0.853172928695569599
0.853172910170603482
0.853172892078557066
0.853172874398913317
0.853172857112968308
0.853172840203907823
0.853172823654960832
0.853172807448715931
0.853172791567833877
0.853172775995786559
0.853172760716914946
0.853172745716160752
0.85317273097896229
0.853172716491359173
0.853172702240099889
0.853172688212635921
0.853172674397060682
0.853172660782058667
0.853172647356907565
0.853172634111500128
0.853172621036280221
0.853172608122178322
0.853172595360591202
0.853172582743365604
0.85317257026277904
0.853172557911525242
0.853172545682708283
0.853172533569854341
0.853172521566920139
0.853172509668301493
0.853172497868833313
0.853172486163771504
0.853172474548779092
0.853172463019917782
0.853172451573648294
0.853172440206801275
0.853172428916525782
0.853172417700071906
0.853172406554782436
0.853172395478676182
0.853172384471884371
0.85317237353935238
0.853172362695315156
0.853172351964777032
0.853172341385028177
0.85317233101300971
0.853172320869000078
0.853172310837032266
0.853172300443368004
0.853172288799495804
0.853172275222117582
0.853172261196689208
0.853172244583379258
0.853172233212721176
0.853172229369442148
0.853173403218598914
0.85317337455765907
0.853173349069776266
0.85317332280934588
0.853173295013738953
0.853173267317921757
0.853173240881528794
0.853173215537167073
0.853173190535061909
0.853173165739443351
0.853173141420077941
0.853173117777387469
0.853173094775744212
0.853173072299809432
0.853173050311849646
0.853173028842947101
0.853173007916341319
0.853172987514585923
0.853172967604630572
0.853172948165456191
0.853172929187838935
0.853172910660327077
0.853172892564233787
0.853172874878446397
0.853172857584098221
0.85317284066454635
0.853172824103292093
0.853172807883181727
0.853172791987128032
0.85317277639886846
0.85317276110301099
0.853172746084738143
0.853172731329687295
0.853172716824061705
0.853172702554749529
0.853172688509320376
0.853172674675962917
0.853172661043414604
0.853172647600967116
0.853172634338593583
0.853172621246796159
0.853172608316547953
0.853172595539293699
0.853172582906945531
0.853172570411867115
0.853172558046864205
0.853172545805191862
0.853172533680563339
0.853172521667153516
0.853172509759597131
0.853172497952968567
0.853172486242762318
0.853172474624858235
0.853172463095497324
0.853172451651232899
0.853172440288898937
0.85317242900573742
0.853172417798752525
0.8531724066643952
0.853172395598988276
0.853172384599995337
0.853172373669771389
0.853172362822723684
0.85317235209348008
0.853172341544586321
0.853172331282513019
0.853172321492696395
0.853172312474009376
0.853172304451044305
0.853172296464767776
0.853172285039976441
0.853172283347088722
0.853172294237888873
0.853172287884826352
0.853172262743172816
0.853173402978599338
0.853173374287119479
0.853173348847302226
0.853173322536424639
0.853173294699916762
0.853173267045858608
0.853173240701545765
0.853173215308189237
0.853173190297645823
0.853173165508234188
0.853173141200062157
0.853173117574398843
0.853173094591085479
0.85317307213131377
0.853173050155380364
0.853173028697451041
0.853173007781277359
0.853172987388947202
0.853172967487594747
0.853172948056273639
0.853172929085520892
0.853172910564305775
0.85317289247419914
0.853172874794097313
0.853172857505069993
0.853172840590442627
0.853172824033712973
0.853172807817726531
0.853172791925391749
0.853172776340441197
0.853172761047483408
0.853172746031701235
0.853172731278733942
0.853172716774792006
0.853172702506770464
0.853172688462253914
0.85317267462946722
0.853172660997271959
0.853172647555146546
0.853172634293019372
0.853172621201330972
0.853172608271048016
0.853172595493629116
0.853172582860995066
0.853172570365517746
0.853172558000020564
0.853172545757780676
0.853172533632536645
0.853172521618486224
0.853172509710279581
0.853172497902997096
0.853172486192132706
0.853172474573571815
0.853172463043565199
0.853172451598642967
0.853172440235459351
0.853172428950281225
0.85317241773876562
0.853172406594768784
0.853172395506557324
0.853172384448205534
0.85317237336256968
0.853172362137982643
0.853172350594205042
0.853172338491166249
0.853172325552284172
0.853172311510317471
0.853172296292564414
0.853172280689531659
0.853172267866540102
0.853172264019145254
0.853172256839220822
0.853172247522103633
0.853172243335908576
0.853172240185001374
0.853173403066392
0.853173374336456902
0.853173348814388999
0.853173322457585481
0.853173294601980325
0.853173266885333126
0.85317324048463572
0.853173215079807923
0.85317319003315506
0.853173165203164663
0.853173140860803869
0.853173117203684939
0.85317309418933529
0.853173071701863961
0.853173049705864606
0.853173028234275099
0.853173007307892806
0.853172986907559494
0.853172967000769611
0.85317294756679618
0.853172928595374858
0.853172910074428525
0.853172891985872095
0.853172874309277796
0.853172857025957909
0.853172840119081011
0.853172823571870631
0.853172807366916253
0.853172791486877191
0.85317277591521834
0.853172760636274008
0.853172745634982466
0.85317273089677792
0.853172716407698206
0.853172702154491924
0.853172688124619327
0.853172674306190149
0.853172660687928075
0.853172647259138883
0.853172634009679354
0.853172620929979142
0.853172608011019684
0.853172595244282128
0.853172582621713804
0.853172570135731334
0.85317255777922496
0.853172545545572536
0.853172533428643298
0.853172521422797203
0.853172509522860945
0.85317249772408954
0.853172486022132137
0.85317247441299604
0.85317246289300086
0.853172451458699466
0.853172440106740315
0.85317242883370692
0.85317241763614271
0.853172406510248504
0.853172395451667342
0.853172384456380772
0.853172373525231009
0.853172362672531492
0.853172351933619399
0.853172341371230991
0.853172331089724789
0.853172321270796341
0.853172312225313645
0.853172304434040574
0.853172298652266403
0.853172296559348564
0.853172285532090124
0.853172261421823896
0.85317224434898653
0.853172236401455342
0.853173401956522359
0.853173373289539572
0.853173347799902393
0.85317332142322333
0.853173293510745223
0.853173265853824359
0.853173239507637127
0.853173214156804693
0.853173189146025912
0.853173164357795888
0.853173140070884628
0.85317311647026095
0.853173093503993174
0.853173071058501709
0.853173049105100167
0.853173027677988971
0.853173006795193922
0.853172986435786096
0.853172966568018554
0.853172947172157747
0.8531729282376187
0.853172909751393149
0.853172891694636726
0.853172874046839502
0.853172856789476186
0.853172839905790958
0.853172823379062861
0.853172807192048022
0.853172791327649893
0.853172775769565406
0.853172760502315164
0.85317274551100275
0.853172730781223354
0.853172716299172129
0.853172702051738119
0.853172688026503589
0.853172674211688964
0.853172660596115073
0.853172647169184728
0.85317263392086895
0.853172620841694096
0.853172607922716764
0.853172595155482383
0.853172582531997348
0.853172570044727685
0.853172557686608157
0.853172545451059916
0.853172533332004157
0.853172521323834476
0.853172509421354142
0.853172497619701931
0.85317248591427175
0.8531724743006458
0.853172462774508311
0.853172451331510207
0.85317243996718739
0.853172428676934658
0.853172417455943854
0.853172406298712827
0.853172395202948408
0.85317238416289698
0.853172373183626709
0.853172362276111262
0.853172351458367451
0.853172340765384951
0.853172330277995328
0.853172320107126625
0.853172310262748645
0.853172300674699846
0.853172290498543928
0.853172276077380665
0.853172263931846198
0.853172255189258766
0.853172244666622559
0.853172232714852208
0.853173401617936533
0.853173372895983273
0.853173347257154324
0.853173320659612044
0.853173292560826635
0.853173264767306483
0.853173238339062334
0.853173212890974586
0.853173187765458918
0.853173162886995518
0.853173138549809473
0.853173114919936304
0.853173091928016492
0.853173069461927724
0.853173047500027648
0.853173026076721297
0.853173005205236201
0.853172984861559902
0.853172965013851425
0.853172945643219327
0.853172926739052873
0.85317290828746406
0.8531728902687713
0.853172872661954407
0.853172855447979495
0.853172838609387307
0.853172822128726249
0.85317280598816525
0.853172790170170003
0.853172774658059407
0.85317275943600579
0.853172744488813528
0.853172729801852658
0.853172715361149803
0.853172701153464996
0.853172687166279808
0.853172673387740277
0.853172659806617162
0.853172646412278191
0.853172633194666852
0.853172620144262206
0.853172607252025594
0.853172594509333693
0.853172581907911454
0.8531725694397716
0.85317255709717954
0.853172544872602523
0.853172532758626256
0.853172520747733421
0.853172508831965271
0.85317249700244091
0.85317248524870215
0.853172473557948785
0.853172461914242786
0.853172450298255614
0.85317243869139725
0.853172427070441608
0.853172415422379649
0.853172403689533065
0.853172391863962765
0.853172379899566735
0.853172367792607855
0.85317235543344816
0.853172342646975279
0.853172329232777527
0.853172315845819984
0.853172302216025136
0.853172287462867329
0.853172272174889113
0.853172254776285666
0.853172233356494725
0.853172207629270707
0.85317218666317729
0.853172167240757395
0.85317214671190722
0.853173398980683895
0.853173370438823575
0.853173344843506931
0.853173318125024172
0.853173289955780789
0.853173262233779539
0.853173235927959239
0.853173210550758232
0.853173185459848327
0.85317316063457227
0.853173136379870689
0.853173112838086611
0.853173089926454131
0.853173067539557572
0.85317304566364649
0.853173024331590812
0.85317300355079384
0.853172983294522402
0.853172963531671935
0.853172944243925868
0.853172925419786399
0.85317290704429305
0.853172889097486564
0.853172871558628532
0.853172854408915105
0.853172837630884362
0.853172821207037635
0.853172805119624345
0.853172789351268945
0.853172773885435221
0.853172758706397749
0.853172743799057942
0.853172729148896081
0.853172714742047367
0.853172700565351549
0.853172686606320618
0.853172672853058089
0.85317265929417585
0.853172645918685024
0.853172632715842871
0.853172619674893662
0.853172606784669996
0.85317259403301493
0.853172581406066666
0.85317256888763926
0.853172556459485976
0.853172544099272234
0.853172531778194521
0.853172519458184397
0.853172507088475696
0.853172494600361597
0.853172481899308832
0.853172468854737742