/*--------------------------------*- C++ -*----------------------------------*\
  =========                 |
  \\      /  F ield         | OpenFOAM: The Open Source CFD Toolbox
   \\    /   O peration     | Website:  https://openfoam.org
    \\  /    A nd           | Version:  8
     \\/     M anipulation  |
\*---------------------------------------------------------------------------*/
FoamFile
{
    version     2.0;
    format      ascii;
    class       volVectorField;
    location    "0.5";
    object      U;
}
// * * * * * * * * * * * * * * * * * * * * * * * * * * * * * * * * * * * * * //

dimensions      [0 1 -1 0 0 0 0];

internalField   nonuniform List<vector> 
1800
(
(0.956234405119612552 -1.09181657493887302e-11 0.000792809160390937841)
(0.950607358672093228 -1.09345441471271783e-11 0.00167116138699796601)
(0.926010335879375424 0 0.00202112166792805604)
(0.884933296469677888 0 0.00218134320756199285)
(0.845586652152764517 -1.09699405173896402e-11 0.0024626321344033645)
(0.812468999801427394 -1.0981922516253849e-11 0.00282190916302262106)
(0.781712688647875464 0 0.00313850828296736778)
(0.750548670633883974 0 0.0033769816186247515)
(0.719412212316753563 0 0.00356396755023128406)
(0.689688585595939041 0 0.00372353799999382935)
(0.66183233956904286 0 0.00385500241265592349)
(0.63549162601126874 0 0.00394830681588251905)
(0.610337050362657729 0 0.00400020542714365351)
(0.586396498179656556 -1.10643280166373301e-11 0.00401524180459110654)
(0.563866754458984598 -1.10720488088729778e-11 0.00401793249916921995)
(0.997862513580803578 3.2745054065203757e-11 0.0414785670574206108)
(1.00758478361739989 3.27486786505841525e-11 0.0484065929884808788)
(1.01520192950075905 0 0.0459270711355337369)
(1.01322559123400979 0 0.0460959413479013827)
(1.00793836844621465 3.27482165618826074e-11 0.0468629844981215751)
(1.00374802691502629 5.4586603305905872e-11 0.0461334991783492049)
(0.999666694728319705 2.18387923712377344e-11 0.0444121854672612226)
(0.993819568104229223 0 0.0425151077877579456)
(0.986227626403864743 0 0.0406567449121356533)
(0.977910713809371224 0 0.0387696607473015376)
(0.969412860839316215 0 0.0368318554217054242)
(0.960668454485605006 0 0.0348828635835351786)
(0.951549852021466469 0 0.0329448194111666148)
(0.942153931040381032 1.09418624705012472e-11 0.0309956090388496044)
(0.932703382447146234 1.09451008888492071e-11 0.0289909691325371741)
(0.999887778321071452 -2.18355118907156533e-11 0.00362390569634931043)
(1.00971282856355971 -2.18340773082390245e-11 0.00408039663760043688)
(1.02147824684358568 0 0.00436323128785136381)
(1.02741754469195867 0 0.00723152595456822041)
(1.0298649754070579 -2.181801658987057e-11 0.0105534424172201019)
(1.03312169592185099 -4.36279485993227335e-11 0.0127109793141828332)
(1.037343505730282 -6.54341676106916736e-11 0.0140466080889865598)
(1.04077407621027551 0 0.0152261002714761933)
(1.04288459280193591 4.36160539561907994e-11 0.0163537425311743451)
(1.04430185740137071 0 0.0172564721880515727)
(1.0454890086610884 2.18065724226017787e-11 0.0178612891056451339)
(1.04637965474151384 2.18065916937007099e-11 0.0182159123621868611)
(1.04679213396768223 2.18069998452302942e-11 0.0183760520228138484)
(1.046726094667636 2.18077718070276165e-11 0.0183525929576644486)
(1.0462949143933955 0 0.0181050830325815981)
(1.00000665177327619 -4.36833132577150969e-11 0.0180020071834629432)
(1.00544333244813755 -4.36844138109765508e-11 0.0290480226460415498)
(1.01327479187785596 0 0.0331893349833692897)
(1.01899286806478528 0 0.0350093526762761606)
(1.02305538766632176 -4.36523215375710329e-11 0.0365065065146194245)
(1.0279292445424042 -4.36417906779213026e-11 0.0372534723405556351)
(1.03393620124696017 4.36330711078291169e-11 0.0370767733751898726)
(1.03979598724981126 0 0.0364385125640641419)
(1.04488536836553392 -4.36180030388963244e-11 0.0356798575656661135)
(1.04955682798316974 0 0.034815929654099291)
(1.05418793933354582 -2.18024391567075131e-11 0.0338042003920396988)
(1.05873259711909085 -6.5399029603704629e-11 0.0326798258237665715)
(1.06298964861708889 -6.53916232100300559e-11 0.031497047839592951)
(1.06688837832802674 -2.17950252405758707e-11 0.0302671800693128275)
(1.07046787436567725 0 0.0289716900119880057)
(1.00003238490715929 4.91420491796079284e-19 0.00238855827321058202)
(1.00355800723849065 -2.36730637211180071e-19 0.0029180845998664647)
(1.01017557623619769 0 0.00250168656997356133)
(1.01633098761061391 -4.36736444462387627e-11 0.00327361890090725229)
(1.0209607394046154 -5.03740286891501148e-21 0.00528940648285702343)
(1.02560020278983877 4.36531912087245062e-11 0.00728736281892873854)
(1.03109024302528951 0 0.00866564669543027841)
(1.03680897256937432 0 0.00970821238196373573)
(1.04214630268049024 0 0.0107220039265307661)
(1.04720544607078181 0 0.0116784536926494032)
(1.05228781753832457 0 0.0124495948146425752)
(1.0574157827223587 4.36075572159606087e-11 0.0130099557082196931)
(1.06242951627436 4.36012895553756526e-11 0.013404215596760697)
(1.06723473939466995 0 0.0136620773793366991)
(1.07183819263078006 0 0.0137896004110491938)
(0.999994567897165454 4.36947939784429443e-11 0.00869277825263133075)
(1.00273129853732623 4.3702169432398487e-11 0.0162101530133199369)
(1.00762482752003724 0 0.0211290370716511605)
(1.0124209833076756 4.36848123321196757e-11 0.0239030134762659892)
(1.01649064264909406 4.36760449297808085e-11 0.0255980159228146598)
(1.02079794647229338 0 0.0265496201521137967)
(1.02594093047214008 0 0.0267740036936143337)
(1.03148246271139099 0 0.0265190390764120723)
(1.03685650879892477 0 0.0260761416131708237)
(1.04202125415650304 0 0.025533098887572863)
(1.04719711233287138 4.36284337322609868e-11 0.0248613159282741018)
(1.05244269196676621 4.36214466606469908e-11 0.0240723056139934763)
(1.05763924538396004 4.36147584600905345e-11 0.0232251218914943103)
(1.06268608866697223 4.36083253030021013e-11 0.0223648716450605724)
(1.06757410965701327 0 0.0215153887841090415)
(1.00002790799779517 8.73967749410494189e-11 0.00141777411022353137)
(1.00176149444500506 8.74168727669204379e-11 0.00168422784550516171)
(1.00575585460877415 0 0.000985314753629178315)
(1.01058324123448307 0 0.000606902139108563519)
(1.01510395208401727 8.73687746953434754e-11 0.0011296123078637576)
(1.01953761265445975 8.7352044039048849e-11 0.00211161204726170162)
(1.02441881794190448 8.73360141915593056e-11 0.00300586799590663641)
(1.02965431602081581 8.73209693555774665e-11 0.00372148501338369353)
(1.03484959659350162 0 0.00440126374008106922)
(1.0398865836790927 -8.72918243634929746e-11 0.00508773750561848041)
(1.04490078707670131 -1.3091640050942072e-10 0.00570831969981326365)
(1.04996831390515699 -4.36319370640228899e-11 0.00621295390811666889)
(1.05501693603928293 -4.36253148018954121e-11 0.00661487158744402531)
(1.05995542552992839 -1.30856673423709038e-10 0.00694134758767596307)
(1.0647639064619383 -8.72210926563907774e-11 0.00720479536899683737)
(0.999995220265043727 -1.74802557342211446e-10 0.00418438958930731925)
(1.00175704781384334 -1.74850944290167486e-10 0.00841886866635441038)
(1.00532568316691573 0 0.0120129998885341472)
(1.00944397147681375 0 0.014548324746753322)
(1.01337757637326886 -1.74770828676358258e-10 0.0161597045838952208)
(1.01740413301143096 -1.74741709002737302e-10 0.0170840893693589083)
(1.02196058799062373 -8.73562521276565648e-11 0.0174454572519413091)
(1.02697322452341311 -8.73419651800791282e-11 0.0173972898321041215)
(1.03207909900171457 0 0.0171330675400701606)
(1.0370971358029637 8.73135584143323962e-11 0.0167612528256018828)
(1.04209007910203733 8.72994430915375191e-11 0.0162932357354666907)
(1.04712982696654455 0 0.0157337505012803795)
(1.05217061854576821 0 0.015120763639044927)
(1.05712668357885731 8.72590734291581352e-11 0.0144975366081650271)
(1.06196556655772723 8.72420209026329167e-11 0.0138911219128003659)
(1.00002140967278308 8.7405961073670282e-11 0.000266299932663519175)
(1.00125170341918812 8.74343952858506649e-11 -0.000147135965557492962)
(1.00426870113868105 0 -0.00125503401584461808)
(1.00835658130464956 0 -0.00232230548656903093)
(1.01263453578137463 8.73987995797303221e-11 -0.00281265915089190955)
(1.0169467970453907 8.73850212687857708e-11 -0.00279098058463021726)
(1.02156117601095331 0 -0.00255534177352821851)
(1.02652068210557013 0 -0.00226183905541914266)
(1.03157888266336695 0 -0.00190610992117817564)
(1.03655749002936992 0 -0.00148501155614664529)
(1.04148395805087168 0 -0.00104723137445888342)
(1.04643129884349073 0 -0.000633656343281049006)
(1.05138053469673398 0 -0.000255158926164066892)
(1.05625690860994159 0 9.77103734931350043e-05)
(1.06102439679606086 0 0.00042471274004433077)
(0.999994726093922481 -8.74091773490639969e-11 0.00150671966189950385)
(1.00142464049835755 -8.74405331106266324e-11 0.00328410963290201845)
(1.00457742285241158 0 0.00522309783593188394)
(1.00850063862276507 -8.74219660313372507e-11 0.0069126302178146937)
(1.01242567324622224 -8.74109306529361981e-11 0.00807676720016246678)
(1.01639596859990866 0 0.00872192292350099443)
(1.02076779289154329 0 0.00897874832359413753)
(1.02557764861898626 0 0.00898137906901824018)
(1.03054850436903833 0 0.00881910407087011482)
(1.03548437549376815 0 0.00855125857310431135)
(1.04038604174680893 0 0.00820949068000378403)
(1.0453195822963135 0 0.00781390001134195031)
(1.05027014386359152 0 0.00739264572137813322)
(1.05515929107232642 0 0.00696419502796966506)
(1.05995053939945305 0 0.00654745654725402346)
(1.00001427709482305 8.74091479421676782e-11 -0.00149932068194563988)
(1.00145308449479797 8.74404692227370334e-11 -0.00328146210238667614)
(1.00459776802982481 0 -0.00522252770887106539)
(1.00852768290988748 8.74218929105859449e-11 -0.00691228950793872001)
(1.01245448046342768 1.74821731535980255e-10 -0.00807913789376347655)
(1.01642197878973684 8.73987904504670934e-11 -0.00872287330387578122)
(1.02079156755237022 0 -0.00898052370703013823)
(1.02560014508455466 0 -0.0089805454228089783)
(1.03058024597407183 0 -0.00881860210212431772)
(1.0355133684351967 -8.73455464769204706e-11 -0.00855348624088777057)
(1.04041178390075717 -8.73317965100324959e-11 -0.00821022239239004373)
(1.04534583193750308 0 -0.00781526291505112679)
(1.0502970335982611 0 -0.00739266173646848605)
(1.05519063122228918 0 -0.00696554930154551308)
(1.05997745210934591 0 -0.00655024304845976905)
(1.00002182338590373 0 -0.000269814666051357245)
(1.00125388044332309 0 0.000148817505403327975)
(1.00427282585120259 0 0.00125792725257944352)
(1.00836257256411255 0 0.00232537309166327673)
(1.01264200198488097 -8.73987851141068058e-11 0.00281905772517494812)
(1.01695438549155703 -8.73850018311645966e-11 0.00279721142343770717)
(1.02156929360640425 0 0.00256337708224814399)
(1.02652881159723219 0 0.00226860174925906438)
(1.03158781137613986 0 0.00191419694350625637)
(1.03656723145408125 8.73289384100740824e-11 0.00149653588154670175)
(1.04149393139334379 1.74630114881352047e-10 0.0010585566247558794)
(1.04644190557838712 8.73013886549035108e-11 0.000646883065270251558)
(1.05139125539903056 8.72879946885924287e-11 0.000268537736448122815)
(1.05626812465610254 8.72748673272733998e-11 -8.19312858553514325e-05)
(1.06103603151479975 0 -0.000406622937530769365)
(0.999995221395024392 0 -0.00418580282410219596)
(1.00175469994052557 0 -0.008419710472191623)
(1.00532250127459921 0 -0.012013026146601706)
(1.00944156023817855 -1.74798343281217665e-10 -0.0145481588620474181)
(1.01337586426605974 -3.49541683414121238e-10 -0.0161593735181554156)
(1.01740310434935766 -1.74741717545264908e-10 -0.0170838058635570979)
(1.02195957139843752 0 -0.017445066290272683)
(1.02697269616050324 0 -0.0173971121334731138)
(1.03207852710464865 0 -0.0171328308617354069)
(1.03709658407764671 0 -0.0167606839692997951)
(1.04209018722652402 -8.72994432690694391e-11 -0.016292705306349145)
(1.04713013214685935 -8.72856418475364682e-11 -0.0157331698833255568)
(1.0521713103958017 -8.72721995576725762e-11 -0.0151202861987634312)
(1.05712726114726152 -8.7259073034221734e-11 -0.0144968907857470526)
(1.06196621851302475 0 -0.0138902474788745942)
(1.00002790336672187 1.74793547660470797e-10 -0.00141849260360742721)
(1.00176049834168501 1.74833746782621126e-10 -0.00168492470524178378)
(1.0057540166391854 0 -0.000985477786614471921)
(1.01058150516610512 1.74769953935802119e-10 -0.00060673855067338721)
(1.01510267206181881 3.49475114981359661e-10 -0.00112938605011585268)
(1.01953663829064523 1.74704094988655186e-10 -0.00211143983546774544)
(1.02441776319001265 1.74672035791637613e-10 -0.00300565245975256646)
(1.02965330353057305 1.74641946909327741e-10 -0.00372129559481787931)
(1.03484854554579453 0 -0.00440102610463718839)
(1.0398855452915805 -1.74583655165034193e-10 -0.00508737553654987733)
(1.04489993602483189 -1.74555206786512951e-10 -0.00570792847352229443)
(1.04996753521959918 0 -0.00621253203098070302)
(1.05501624280261996 0 -0.0066144514073729916)
(1.05995464022158092 -1.74475571988721862e-10 -0.00694080860324303248)
(1.06476306396326015 -1.74442194079274076e-10 -0.00720405490197815069)
(0.999994567100766396 -1.74779164154662817e-10 -0.00869302543228007811)
(1.00273092516319262 -1.74808668506111642e-10 -0.0162104371502515172)
(1.00762399773757183 0 -0.0211291064401482077)
(1.01242009132930999 0 -0.0239028867532326689)
(1.01648999989672095 0 -0.0255978440953987564)
(1.02079750621128418 0 -0.0265494868286159195)
(1.0259404597982531 -1.7463475492522288e-10 -0.026773857698335974)
(1.03148195642713247 -1.746036519710977e-10 -0.0265188696721915633)
(1.03685599099599846 0 -0.0260759257655314124)
(1.04202077507205182 1.74543025258215757e-10 -0.0255328218880527605)
(1.04719671432230177 1.74513739136866513e-10 -0.0248610020848956739)
(1.05244233054242553 0 -0.0240719511685397562)
(1.05763890670721561 0 -0.0232247218836467394)
(1.06268570761915981 1.74433307137873936e-10 -0.022364361664458484)
(1.06757369078933984 1.74400175761433109e-10 -0.0215147005697881623)
(1.00003238379679993 -1.74761028801729478e-10 -0.00238870151458382999)
(1.0035578307905475 -1.74777110758645353e-10 -0.00291826795141369088)
(1.01017515173493577 0 -0.00250174611472302405)
(1.01633050016636473 0 -0.00327352991944309009)
(1.02096039608054401 -1.74653165681018959e-10 -0.00528926426518378651)
(1.02560000529894291 -1.74612767001416372e-10 -0.00728723544851077754)
(1.03109005925551833 0 -0.00866551166087278953)
(1.03680876666972965 0 -0.00970804184230010699)
(1.04214610656866635 0 -0.0107217847726517428)
(1.04720530328248862 0 -0.0116781867046660166)
(1.05228774064611752 0 -0.0124492856692873227)
(1.05741574786701653 0 -0.0130095947929321359)
(1.06242951119185913 0 -0.0134037843035437511)
(1.06723474477924229 0 -0.0136615306210999769)
(1.07183821860453166 0 -0.0137888856098379361)
(1.00000665149514245 1.74733252701740214e-10 -0.018002057127947519)
(1.00544325722886341 1.74737655192459266e-10 -0.0290480934538034849)
(1.01327459504009676 0 -0.0331893541243311885)
(1.01899262715686967 0 -0.0350092938627512631)
(1.02305522083951117 1.74609287586296533e-10 -0.0365064076932920673)
(1.02792917448588939 1.74567163929399323e-10 -0.0372533719147655137)
(1.0339361635089348 0 -0.0370766637088691398)
(1.03979595038978956 0 -0.0364383720872931)
(1.04488535491418633 0 -0.0356796764486679296)
(1.04955687316811974 -3.48888755758258019e-10 -0.0348157099427487196)
(1.0541880539412336 -3.48839028881395466e-10 -0.0338039424612259706)
(1.05873277145284206 0 -0.032679517892742399)
(1.06298988085879897 0 -0.031496669987369004)
(1.06688867432436529 0 -0.0302666988720742443)
(1.07046825743255414 0 -0.0289710641567467175)
(0.999887777897718211 0 -0.00362393226482527094)
(1.00971278839231249 0 -0.00408043325938823708)
(1.02147814477862986 0 -0.00436323626210572465)
(1.02741742357029242 0 -0.0072314830883071779)
(1.02986490404974784 0 -0.0105533722323246197)
(1.0331216965362684 0 -0.0127109035736065849)
(1.03734355012951962 0 -0.014046523744125114)
(1.04077414642732946 0 -0.0152259919345656032)
(1.04288470575156023 0 -0.0163536015134189104)
(1.04430204292138429 3.48912424285862495e-10 -0.0172562989023456563)
(1.04548928328040192 6.97810315157972627e-10 -0.0178610819817157755)
(1.04638002345052783 3.48905464382068113e-10 -0.0182156603244642279)
(1.04679260868530721 0 -0.0183757378314335501)
(1.04672670189271799 0 -0.0183521936003058217)
(1.04629569796119171 0 -0.0181045721256557456)
(0.997862512976832483 0 -0.0414785778860244855)
(1.00758476381426654 0 -0.0484066104822097609)
(1.01520187880961332 0 -0.0459270764713085589)
(1.0132255347247765 0 -0.0460959184298203734)
(1.00793835012910926 -1.74657158326837977e-10 -0.046862939835949767)
(1.00374807039767777 -1.74677132865954946e-10 -0.0461334450691902667)
(0.99966679215011589 0 -0.044412123861230661)
(0.993819713269650462 0 -0.0425150319964347628)
(0.986227835313195245 0 -0.0406566492984315395)
(0.977911014253702193 0 -0.038769545106207233)
(0.96941327541622957 -3.49792721248132007e-10 -0.0368317202671045937)
(0.960669000640866355 -3.49904847073987598e-10 -0.0348827050772818822)
(0.95155055253461962 0 -0.032944624927543617)
(0.942154826356552566 0 -0.0309953598421194576)
(0.932704532851386436 0 -0.0289906413607570711)
(0.956234404986194053 -1.74690651990556164e-10 -0.000792809442035509004)
(0.950607346950412935 -1.74952706401421083e-10 -0.00167116199603480607)
(0.926010307420961354 0 -0.00202112246156309523)
(0.884933273572290457 -1.75332566780196209e-10 -0.00218134377612405053)
(0.84558666195218779 0 -0.00246263210601060109)
(0.812469062177508028 1.75710760029038621e-10 -0.00282190827686246625)
(0.781712801024706305 0 -0.00313850627007170339)
(0.750548828983727767 0 -0.00337697807036669954)
(0.719412429614503801 0 -0.00356396221019985616)
(0.689688885085553038 0 -0.00372353066487118335)
(0.66183274069473963 0 -0.00385499272175291114)
(0.635492142396658521 0 -0.00394829437512918789)
(0.610337703293324485 0 -0.00400018950540013182)
(0.586397322861864412 0 -0.00401522132312481534)
(0.563867803042883531 0 -0.00401790604329508444)
(0.546398876034688397 0 0.00397220338869502289)
(0.528443298861573263 -1.10330198659439787e-11 0.00388141617155402701)
(0.512356087102684654 -1.1040093289149281e-11 0.00382111397612554639)
(0.497986612476196355 4.97108752249737672e-10 0.00376566391564969955)
(0.484267693097005791 -1.17165045467851713e-09 0.00368619411537498979)
(0.470809843143749629 6.52506575129155772e-10 0.00358359472252870728)
(0.45789477228227865 0 0.00347253096903239441)
(0.445779245706334426 -3.32123439669200606e-10 0.00336011118843500744)
(0.434430270179889555 3.32280545539343796e-10 0.00324439022045822567)
(0.423701436435312495 6.64858408190783913e-10 0.00312292488431487915)
(0.413520616585376033 -9.97709320404429623e-10 0.0029970364197887938)
(0.403895162827154541 3.32702569403084003e-10 0.00286975340830700112)
(0.394832792559222101 0 0.00274301946128556939)
(0.386307491436734152 0 0.00261745545093227099)
(0.378278943471418605 0 0.00249347669027531835)
(0.370715236853623564 3.33162557211353758e-10 0.00237185569103200286)
(0.363594345431516031 -3.33261446347790017e-10 0.00225346795365242471)
(0.356895308656422772 0 0.00213894753355969598)
(0.350594053900290636 0 0.00202866224121654812)
(0.344665438905242927 0 0.00192286154206058706)
(0.339085940934172436 0 0.00182175840981966142)
(0.333834006481727619 -3.33675448662657892e-10 0.00172551105936222769)
(0.328889134231260649 3.33744312124466006e-10 0.00163419174338747474)
(0.324231376272533622 1.11269725049770618e-11 0.00154779222175475527)
(0.319841529187906926 -5.79172689873981972e-26 0.00146624984660179711)
(0.315701434668895109 -1.11309327149774266e-11 0.00138946544904064331)
(0.311794034684744925 1.33592960125150631e-09 0.00131730966831520094)
(0.308103265804670623 -1.3472696721085746e-09 0.00124962515778872336)
(0.304613976989466739 -1.11360793871107198e-11 0.00118623287408836479)
(0.301311917163944676 0 0.00112693971017880463)
(0.298183738935183018 6.68343800109203414e-10 0.00107154489918990636)
(0.295216975745230537 -1.33685281900244225e-09 0.0010198442210070087)
(0.292399997979270132 -2.00551458100460896e-09 0.000971633560785890556)
(0.289721966557181188 2.67431813389094642e-09 0.000926712262196159532)
(0.287172792541619426 -6.68650727757850236e-10 0.000884886504192280358)
(0.284743098151653051 2.00615657213323413e-09 0.000845972623123796984)
(0.282424176119072223 -1.33756867564555838e-09 0.000809800040958625657)
(0.280207944315644053 0 0.000776214855236248688)
(0.278086899820908451 0 0.000745082973074416501)
(0.276054071917515464 0 0.000716292885864495466)
(0.274102972494777442 0 0.000689758203342436698)
(0.272227544827330303 0 0.000665417891148596826)
(0.270422106026920961 0 0.000643233180725319149)
(0.268681290568596742 1.3384889687449854e-09 0.000623181862644552249)
(0.266999989321870079 -1.33866995470716131e-09 0.000605254051355965219)
(0.265373321594956024 0 0.000589451312080243326)
(0.26379663014684912 6.69580499071043945e-10 0.000575768589594476913)
(0.262265544236284343 -6.69754218249751036e-10 0.000564019526977764508)
(0.260775477678219625 0 0.000553979610150490587)
(0.259323782024935667 0 0.000544862461419295583)
(0.257904100094320743 0 0.000536042075833748056)
(0.25651371361812253 0 0.000527281377026062167)
(0.255155980811449745 0 0.000518274951572961912)
(0.253823607938817752 0 0.000508551266152441547)
(0.25251664623215142 -1.34488876807028296e-09 0.000498046163689066894)
(0.251232308225457779 1.34599389862497376e-09 0.000486816707310179498)
(0.249972751199525445 0 0.000475208511683703567)
(0.24873457666894988 -1.34822260958243506e-09 0.000463573568099790465)
(0.247520980917080385 1.34928782496075848e-09 0.000452771285645409485)
(0.246331357088656222 0 0.000444165995257206673)
(0.245168118106175337 -2.70273347826337403e-09 0.000439879254724164241)
(0.244031798415071804 2.70467537747824344e-09 0.000443519577557162164)
(0.242922564060209539 -1.35324664056587424e-09 0.000460480298524645524)
(0.241842648964192636 -1.35412854042538059e-09 0.000499859490795134635)
(0.240793251432464078 5.41982132956360384e-09 0.000577072498102142628)
(0.239775238571252908 -5.42302309031368516e-09 0.00071820450088124052)
(0.238791861119792892 2.70170526816846495e-09 0.000967664677173495145)
(0.237849105269977129 -1.13104931237851613e-11 0.00140297321294944764)
(0.236953239260584841 2.71593024439200685e-09 0.00217228405086582286)
(0.236117119580192686 -4.76684019757065669e-09 0.00358679924377699674)
(0.235330301157826799 2.0277837681253538e-09 0.00618700978288458901)
(0.234478296453732721 1.36012144442130814e-09 0.0109675968359694825)
(0.233379808223635826 -6.80418200749966672e-10 0.0197226363295144244)
(0.23186554374483026 -6.80816323338702244e-10 0.0225256221386097022)
(0.232176579808435868 0 0.0183748788801291509)
(0.925160485851693526 0 0.0275193492500078463)
(0.916723940249727365 1.08670392402701464e-11 0.0262586138365264038)
(0.908713862050451571 1.08706301414614029e-11 0.0250238483629792383)
(0.901255733800881309 6.52455868258200972e-10 0.0237559285262061784)
(0.893869442812041948 -1.27271142032919551e-09 0.0225004366889388213)
(0.886333318497969369 6.63767781417336353e-10 0.0212961555334549336)
(0.878783734561181307 -2.17699200738771308e-11 0.0201394792884283351)
(0.871389739154170284 -3.26653171781227685e-10 0.0190194854247355272)
(0.86417971231836177 9.74210799749751663e-18 0.0179385031879326189)
(0.857105280550952697 9.80570432144868274e-10 0.0169046205803395841)
(0.850142334030278723 -6.53911272057371623e-10 0.0159209473476270985)
(0.843308135520773217 0 0.0149854884722227886)
(0.836625562701883707 0 0.0140963534597606539)
(0.830100719969448009 0 0.0132535442650033187)
(0.823728736153882646 0 0.0124572489085861948)
(0.81750599883522268 3.27417351310916688e-10 0.0117065014126285141)
(0.811433159660080006 -3.27502968223664275e-10 0.0109995642352261423)
(0.805511365686246927 0 0.0103347598289901584)
(0.799739464812658785 0 0.00971064750478258659)
(0.794114508865106039 0 0.00912574216707719675)
(0.788633261585201528 3.27823225417907471e-10 0.00857835255118739003)
(0.783292733951687414 -6.55795856863813791e-10 0.00806667031305594896)
(0.778089863192100051 9.83911725728799575e-10 0.00758890549148091495)
(0.773021211322744706 -6.67017168200464385e-10 0.00714331980784249469)
(0.768083026977140593 -6.34345873569216921e-10 0.00672819396456283102)
(0.763271453197766792 6.89171218603563063e-10 0.00634181152925490481)
(0.758582640120627372 1.31296709996455301e-09 0.00598247858137672395)
(0.754012744978676319 -1.28038962662779368e-09 0.00564854947455179467)
(0.749557916288340897 3.28366579460455835e-11 0.00533843697950813888)
(0.745214311556107956 2.18950997129441343e-11 0.00505061173124813929)
(0.740978133877321365 2.18989889639705082e-11 0.00478360248062382077)
(0.73684565773826205 -6.57083310108232065e-10 0.00453600074713176975)
(0.732813237787914629 -6.57194020205807915e-10 0.00430646577114597237)
(0.728877311584193777 1.31460391520508553e-09 0.00409372624593694941)
(0.725034402787583465 0 0.00389658030615755522)
(0.72128112508344433 6.57509813259067438e-10 0.00371389404811184624)
(0.717614184381025422 -1.31521999369324531e-09 0.00354460009868723738)
(0.714030376593172034 6.57707834136718919e-10 0.00338769555796863573)
(0.710526583784512611 0 0.0032422388661393943)
(0.70709976945128461 0 0.00310734613087740525)
(0.703746973213782323 0 0.00298218734558238245)
(0.700465306189124504 0 0.00286598340172407491)
(0.697251946626303298 0 0.0027580036875076955)
(0.694104138201589338 1.31650885463673578e-09 0.00265756312306078633)
(0.691019189630282193 -1.31668238134927127e-09 0.00256401548302901414)
(0.687994479429840156 6.58427898519126697e-10 0.00247674014416474032)
(0.685027480788848564 -9.28279457627498558e-18 0.00239513138881009046)
(0.682115884046916032 -6.58604808143699899e-10 0.00231856825405723881)
(0.679257544446118855 0 0.00224650578558700884)
(0.676450709778517845 0 0.00217756638739427391)
(0.673692415863370142 1.31780013061161269e-09 0.00211178241823281295)
(0.670981080224177351 -1.31803314650942977e-09 0.00205159983454880667)
(0.668314842436523504 0 0.00199452377653571919)
(0.665692595622494943 0 0.00194021499550177607)
(0.663112243018843639 -1.31883216142187735e-09 0.00188749230399212374)
(0.660573864872428529 1.31917082662549423e-09 0.00183747641357629495)
(0.658074070278470868 0 0.00178777806355922587)
(0.655611979662418132 -1.31988457606858832e-09 0.00173921051812221303)
(0.653186468533299203 1.32026681522365372e-09 0.00168913207824966573)
(0.650798442904350183 0 0.00163591425709306323)
(0.64844818614123656 -2.642240604667027e-09 0.00157830047110213596)
(0.646135461788450605 1.98243381932762687e-09 0.00151395731554360667)
(0.643858244222308862 -6.61045276101165321e-10 0.00143582828722461789)
(0.641616672432874346 1.32257136173291254e-09 0.0013340708622919255)
(0.639412060512921987 2.64613512220573532e-09 0.00119514945000851565)
(0.637239548236988917 -3.30910020829170451e-09 0.000990308465323686774)
(0.635092927787229478 6.73094953759854271e-10 0.00067073460359673247)
(0.63295835481155116 1.10386073905480193e-11 0.000153660658141233721)
(0.630797984758469488 2.65047306642175034e-09 -0.000706765586931953492)
(0.628523465767356515 -2.64049055053964438e-09 -0.0021409428763419368)
(0.626053716758430689 1.1052476081351127e-11 -0.00445765124970776312)
(0.623417635049297703 6.63459703666160334e-10 -0.00824002907858817704)
(0.621118433433337502 -7.47413087604691887e-18 -0.0159916836330622411)
(0.621165221162851444 -6.64081479801712629e-10 -0.02172430388697906)
(0.620106225223336249 0 -0.0200909775827718337)
(1.04607077458584685 0 0.018027006027792853)
(1.04493223562929227 0 0.0181461814607907848)
(1.04368742578428164 2.16222019059493964e-11 0.0181589367001682295)
(1.04262275121135772 3.45980124928190504e-10 0.0179774988276973496)
(1.04149258591540095 -3.46007819624564884e-10 0.017699936252841799)
(1.04009075528652928 0 0.0174053683563803463)
(1.03846335674510604 4.32584895017384928e-11 0.0170963168959479619)
(1.03673670419724107 -6.27307232786431248e-10 0.0167555888727414677)
(1.03495567788203124 3.24501293248528128e-10 0.0163851511411684768)
(1.0330952022549873 3.24534347654054268e-10 0.0159984835066292325)
(1.03113614935287257 0 0.0156042044320929899)
(1.02909234090801682 0 0.0152041930170524042)
(1.02698817494393113 0 0.0147995667168658238)
(1.02483720692072322 0 0.0143933748508370749)
(1.02264288594411723 0 0.0139891017754515592)
(1.0204083169458622 6.49491431479871672e-10 0.0135891425864965738)
(1.01814018529509243 -6.4956399920212889e-10 0.0131949800547356971)
(1.01584621862207825 -4.3309108532106514e-11 0.0128079288262583687)
(1.01353241071503697 -4.33139481387600273e-11 0.0124293435410465624)
(1.01120295083691736 0 0.0120603791062330514)
(1.00886145082664802 3.24926891293770433e-10 0.0117018305636941294)
(1.00651157219689269 -6.9325394168906583e-10 0.0113542140271883224)
(1.00415680731418466 9.53328815152828287e-10 0.0110178954672875713)
(1.00180014967017006 -6.28398863438646685e-10 0.0106931304563755505)
(0.999444079393214668 -6.71809369568599735e-10 0.0103800458325921299)
(0.997090735767388048 6.28534264920665081e-10 0.0100786376393011464)
(0.994742034522432816 9.75415485213284154e-10 0.00978879914844354992)
(0.99239967566867382 -9.97196461266813437e-10 0.0095103524057111137)
(0.990065123616398757 2.94012833194392254e-20 0.0092430655672244566)
(0.987739619197271379 2.72844566585356133e-20 0.00898666057932538155)
(0.985424216598470459 -2.16849054649671055e-11 0.00874082214461450319)
(0.983119815842699918 -6.50613067326759176e-10 0.00850520978523685266)
(0.980827179111105174 -6.50678300068476851e-10 0.00827946954234553417)
(0.978546940256824427 1.30148582135005472e-09 0.00806324309621116349)
(0.976279615852365334 -4.33871226752050169e-11 0.00785617424623727585)
(0.974025618049065844 6.50870140047922864e-10 0.00765791560915183613)
(0.971785266572718909 -1.90940291860546264e-09 0.00746813529423036738)
(0.969558797628749303 1.34538939887414459e-09 0.00728652348155004945)
(0.967346370740014838 0 0.0071127991041574478)
(0.965148075607425437 -4.51803290635322796e-25 0.00694671570167394292)