 vasp.5.3.5 31Mar14 (build Jan 31 2018 16:04:57) complex                        
  
 executed on             LinuxIFC date 2018.12.17  16:10:49
 running on    8 total cores
 distrk:  each k-point on    8 cores,    1 groups
 distr:  one band on NCORES_PER_BAND=   1 cores,    8 groups


--------------------------------------------------------------------------------------------------------


 INCAR:
 POTCAR:    PAW_PBE Co 02Aug2007                  

 ----------------------------------------------------------------------------- 
|                                                                             |
|           W    W    AA    RRRRR   N    N  II  N    N   GGGG   !!!           |
|           W    W   A  A   R    R  NN   N  II  NN   N  G    G  !!!           |
|           W    W  A    A  R    R  N N  N  II  N N  N  G       !!!           |
|           W WW W  AAAAAA  RRRRR   N  N N  II  N  N N  G  GGG   !            |
|           WW  WW  A    A  R   R   N   NN  II  N   NN  G    G                |
|           W    W  A    A  R    R  N    N  II  N    N   GGGG   !!!           |
|                                                                             |
|      For optimal performance we recommend to set                            |
|        NCORE= 4 - approx SQRT( number of cores)                             |
|      NCORE specifies how many cores store one orbital (NPAR=cpu/NCORE).     |
|      This setting can  greatly improve the performance of VASP for DFT.     |
|      The default, NPAR=number of cores might be grossly inefficient         |
|      on modern multi-core architectures or massively parallel machines.     |
|      Do your own testing !!!!                                               |
|      Unfortunately you need to use the default for GW and RPA calculations. |
|      (for HF NCORE is supported but not extensively tested yet)             |
|                                                                             |
 ----------------------------------------------------------------------------- 

 POTCAR:    PAW_PBE Co 02Aug2007                  
   VRHFIN =Co: d8 s1                                                            
   LEXCH  = PE                                                                  
   EATOM  =   813.3670 eV,   59.7808 Ry                                         
                                                                                
   TITEL  = PAW_PBE Co 02Aug2007                                                
   LULTRA =        F    use ultrasoft PP ?                                      
   IUNSCR =        1    unscreen: 0-lin 1-nonlin 2-no                           
   RPACOR =    2.000    partial core radius                                     
   POMASS =   58.933; ZVAL   =    9.000    mass and valenz                      
   RCORE  =    2.300    outmost cutoff radius                                   
   RWIGS  =    2.460; RWIGS  =    1.302    wigner-seitz radius (au A)           
   ENMAX  =  267.968; ENMIN  =  200.976 eV                                      
   RCLOC  =    1.203    cutoff for local pot                                    
   LCOR   =        T    correct aug charges                                     
   LPAW   =        T    paw PP                                                  
   EAUG   =  477.818                                                            
   DEXC   =    0.000                                                            
   RMAX   =    2.360    core radius for proj-oper                               
   RAUG   =    1.300    factor for augmentation sphere                          
   RDEP   =    2.393    radius for radial grids                                 
   RDEPT  =    1.864    core radius for aug-charge                              
                                                                                
   Atomic configuration                                                         
    9 entries                                                                   
     n  l   j            E        occ.                                          
     1  0  0.50     -7587.6674   2.0000                                         
     2  0  0.50      -893.6084   2.0000                                         
     2  1  1.50      -764.5805   6.0000                                         
     3  0  0.50       -97.5973   2.0000                                         
     3  1  1.50       -60.9648   6.0000                                         
     3  2  2.50        -4.2382   8.0000                                         
     4  0  0.50        -4.3746   1.0000                                         
     4  1  1.50        -4.0817   0.0000                                         
     4  3  2.50        -1.3606   0.0000                                         
   Description                                                                  
     l       E           TYP  RCUT    TYP  RCUT                                 
     2     -4.2382362     23  2.300                                             
     2     -5.5988188     23  2.300                                             
     0     -4.3745797     23  2.300                                             
     0      5.7660125     23  2.300                                             
     1     -2.7211652     23  2.300                                             
     1     16.9860234     23  2.300                                             
  local pseudopotential read in
  partial core-charges read in
  partial kinetic energy density read in
  atomic valenz-charges read in
  non local Contribution for L=           2  read in
    real space projection operators read in
  non local Contribution for L=           2  read in
    real space projection operators read in
  non local Contribution for L=           0  read in
    real space projection operators read in
  non local Contribution for L=           0  read in
    real space projection operators read in
  non local Contribution for L=           1  read in
    real space projection operators read in
  non local Contribution for L=           1  read in
    real space projection operators read in
    PAW grid and wavefunctions read in
 
   number of l-projection  operators is LMAX  =           6
   number of lm-projection operators is LMMAX =          18
 
 Optimization of the real space projectors (new method)

 maximal supplied QI-value         = 16.25
 optimisation between [QCUT,QGAM] = [ 10.24, 20.48] = [ 29.35,117.42] Ry 
 Optimized for a Real-space Cutoff    1.34 Angstroem

   l    n(q)    QCUT    max X(q) W(low)/X(q) W(high)/X(q)  e(spline) 
   2      7    10.239    65.824    0.41E-03    0.10E-02    0.11E-06
   2      7    10.239    61.429    0.41E-03    0.10E-02    0.11E-06
   0      8    10.239    56.174    0.42E-03    0.17E-03    0.96E-07
   0      8    10.239    31.263    0.38E-03    0.16E-03    0.87E-07
   1      8    10.239    19.828    0.20E-03    0.56E-03    0.13E-06
   1      8    10.239    15.139    0.15E-03    0.46E-03    0.11E-06
  PAW_PBE Co 02Aug2007                  :
 energy of atom  1       EATOM= -813.3670
 kinetic energy error for atom=    0.0093 (will be added to EATOM!!)
 
 
 POSCAR: Co                                      
  positions in direct lattice
  velocities in cartesian coordinates
 exchange correlation table for  LEXCH =        8
   RHO(1)=    0.500       N(1)  =     2000
   RHO(2)=  100.500       N(2)  =     4000

 VTST: version 3.1, (03/28/14)

 CHAIN: initializing optimizer
 
 OPT: Using VASP Conjugate-Gradient optimizer
 CHAIN: Read ICHAIN            0
 
 POSCAR: Co                                      
  positions in direct lattice
  velocities in cartesian coordinates
 


--------------------------------------------------------------------------------------------------------


 ion  position               nearest neighbor table
   1  0.500  0.500  0.000-  16 2.46  14 2.46   4 2.46   2 2.46  13 2.47   9 2.47  17 2.51
   2  0.667  0.750  0.000-   9 2.46  11 2.46   1 2.46   3 2.46  10 2.47  14 2.47  18 2.51
   3  0.500  0.000  0.000-  16 2.46  14 2.46   4 2.46   2 2.46  15 2.47  11 2.47  19 2.51
   4  0.667  0.250  0.000-   9 2.46  11 2.46   1 2.46   3 2.46  12 2.47  16 2.47  20 2.51
   5  0.000  0.500  0.000-  12 2.46  10 2.46   8 2.46   6 2.46   9 2.47  13 2.47  21 2.51
   6  0.167  0.750  0.000-  13 2.46  15 2.46   5 2.46   7 2.46  14 2.47  10 2.47  22 2.51
   7  0.000  0.000  0.000-  12 2.46  10 2.46   8 2.46   6 2.46  11 2.47  15 2.47  23 2.51
   8  0.167  0.250  0.000-  13 2.46  15 2.46   5 2.46   7 2.46  16 2.47  12 2.47  24 2.51
   9  0.750  0.500  0.056-  25 2.39   4 2.46   2 2.46  12 2.46  10 2.46   5 2.47   1 2.47  17 2.48
                            20 2.48  18 2.48  21 2.50
  10  0.917  0.750  0.056-  26 2.39   5 2.46   7 2.46   9 2.46  11 2.46   2 2.47   6 2.47  22 2.48
                            21 2.48  23 2.48  18 2.50
  11  0.750  0.000  0.056-  27 2.39   4 2.46   2 2.46  12 2.46  10 2.46   7 2.47   3 2.47  19 2.48
                            20 2.48  18 2.48  23 2.50
  12  0.917  0.250  0.056-  28 2.39   5 2.46   7 2.46   9 2.46  11 2.46   4 2.47   8 2.47  24 2.48
                            21 2.48  23 2.48  20 2.50
  13  0.250  0.500  0.056-  29 2.39   8 2.46   6 2.46  16 2.46  14 2.46   1 2.47   5 2.47  21 2.48
                            24 2.48  22 2.48  17 2.50
  14  0.417  0.750  0.056-  30 2.39   1 2.46   3 2.46  13 2.46  15 2.46   6 2.47   2 2.47  18 2.48
                            17 2.48  19 2.48  22 2.50
  15  0.250  0.000  0.056-  31 2.39   8 2.46   6 2.46  16 2.46  14 2.46   3 2.47   7 2.47  23 2.48
                            24 2.48  22 2.48  19 2.50
  16  0.417  0.250  0.056-  32 2.39   1 2.46   3 2.46  13 2.46  15 2.46   8 2.47   4 2.47  20 2.48
                            17 2.48  19 2.48  24 2.50
  17  0.501  0.500  0.113-  29 2.38  32 2.42  30 2.42  20 2.45  18 2.45  25 2.45   9 2.48  16 2.48
                            14 2.48  13 2.50   1 2.51
  18  0.666  0.750  0.113-  26 2.38  25 2.42  27 2.42  17 2.45  19 2.45  30 2.45  14 2.48   9 2.48
                            11 2.48  10 2.50   2 2.51
  19  0.501  0.000  0.113-  31 2.38  32 2.42  30 2.42  20 2.45  18 2.45  27 2.45  11 2.48  16 2.48
                            14 2.48  15 2.50   3 2.51
  20  0.666  0.250  0.113-  28 2.38  25 2.42  27 2.42  17 2.45  19 2.45  32 2.45  16 2.48   9 2.48
                            11 2.48  12 2.50   4 2.51
  21  0.001  0.500  0.113-  25 2.38  28 2.42  26 2.42  24 2.45  22 2.45  29 2.45  13 2.48  12 2.48
                            10 2.48   9 2.50   5 2.51
  22  0.166  0.750  0.113-  30 2.38  29 2.42  31 2.42  21 2.45  23 2.45  26 2.45  10 2.48  13 2.48
                            15 2.48  14 2.50   6 2.51
  23  0.001  0.000  0.113-  27 2.38  28 2.42  26 2.42  24 2.45  22 2.45  31 2.45  15 2.48  12 2.48
                            10 2.48  11 2.50   7 2.51
  24  0.166  0.250  0.113-  32 2.38  29 2.42  31 2.42  21 2.45  23 2.45  28 2.45  12 2.48  13 2.48
                            15 2.48  16 2.50   8 2.51
  25  0.756  0.500  0.163-  21 2.38   9 2.39  28 2.40  26 2.40  20 2.42  18 2.42  17 2.45
  26  0.911  0.750  0.163-  18 2.38  10 2.39  25 2.40  27 2.40  21 2.42  23 2.42  22 2.45
  27  0.756  0.000  0.163-  23 2.38  11 2.39  28 2.40  26 2.40  20 2.42  18 2.42  19 2.45
  28  0.911  0.250  0.163-  20 2.38  12 2.39  25 2.40  27 2.40  21 2.42  23 2.42  24 2.45
  29  0.256  0.500  0.163-  17 2.38  13 2.39  32 2.40  30 2.40  24 2.42  22 2.42  21 2.45
  30  0.411  0.750  0.163-  22 2.38  14 2.39  29 2.40  31 2.40  17 2.42  19 2.42  18 2.45
  31  0.256  0.000  0.163-  19 2.38  15 2.39  32 2.40  30 2.40  24 2.42  22 2.42  23 2.45
  32  0.411  0.250  0.163-  24 2.38  16 2.39  29 2.40  31 2.40  17 2.42  19 2.42  20 2.45
 
  LATTYP: Found a simple orthorhombic cell.
 ALAT       =     8.0199986100
 B/A-ratio  =     1.0673318421
 C/A-ratio  =     2.7718209293
  
  Lattice vectors:
  
 A1 = (   0.0000000000,  -8.0199986100,   0.0000000000)
 A2 = (  -8.5599998900,   0.0000000000,   0.0000000000)
 A3 = (   0.0000000000,   0.0000000000, -22.2300000000)


Analysis of symmetry for initial positions (statically):
=====================================================================
 Subroutine PRICEL returns following result:
 
  LATTYP: Found a simple orthorhombic cell.
 ALAT       =     4.0099993050
 B/A-ratio  =     1.0673318421
 C/A-ratio  =     5.5436418586
  
  Lattice vectors:
  
 A1 = (   0.0000000000,  -4.0099993050,   0.0000000000)
 A2 = (  -4.2799999450,   0.0000000000,   0.0000000000)
 A3 = (   0.0000000000,   0.0000000000, -22.2300000000)
 
   4 primitive cells build up your supercell.
 

 Routine SETGRP: Setting up the symmetry group for a 
 simple orthorhombic supercell.


 Subroutine GETGRP returns: Found  4 space group operations
 (whereof  2 operations were pure point group operations)
 out of a pool of  8 trial point group operations.


The static configuration has the point symmetry C_1h.
 The point group associated with its full space group is C_2v.


Analysis of symmetry for dynamics (positions and initial velocities):
=====================================================================
 Subroutine PRICEL returns following result:
 
  LATTYP: Found a simple orthorhombic cell.
 ALAT       =     4.0099993050
 B/A-ratio  =     1.0673318421
 C/A-ratio  =     5.5436418586
  
  Lattice vectors:
  
 A1 = (   0.0000000000,  -4.0099993050,   0.0000000000)
 A2 = (  -4.2799999450,   0.0000000000,   0.0000000000)
 A3 = (   0.0000000000,   0.0000000000, -22.2300000000)
 
   4 primitive cells build up your supercell.
 

 Routine SETGRP: Setting up the symmetry group for a 
 simple orthorhombic supercell.


 Subroutine GETGRP returns: Found  4 space group operations
 (whereof  2 operations were pure point group operations)
 out of a pool of  8 trial point group operations.


The dynamic configuration has the point symmetry C_1h.
 The point group associated with its full space group is C_2v.


Analysis of constrained symmetry for selective dynamics:
=====================================================================
 Subroutine PRICEL returns following result:
 
  LATTYP: Found a simple orthorhombic cell.
 ALAT       =     4.0099993050
 B/A-ratio  =     1.0673318421
 C/A-ratio  =     5.5436418586
  
  Lattice vectors:
  
 A1 = (   0.0000000000,  -4.0099993050,   0.0000000000)
 A2 = (  -4.2799999450,   0.0000000000,   0.0000000000)
 A3 = (   0.0000000000,   0.0000000000, -22.2300000000)
 
   4 primitive cells build up your supercell.
 

 Routine SETGRP: Setting up the symmetry group for a 
 simple orthorhombic supercell.


 Subroutine GETGRP returns: Found  4 space group operations
 (whereof  2 operations were pure point group operations)
 out of a pool of  8 trial point group operations.


The constrained configuration has the point symmetry C_1h.
 The point group associated with its full space group is C_2v.


Analysis of magnetic symmetry:
=====================================================================
 Subroutine PRICEL returns following result:
 
  LATTYP: Found a simple orthorhombic cell.
 ALAT       =     4.0099993050
 B/A-ratio  =     1.0673318421
 C/A-ratio  =     5.5436418586
  
  Lattice vectors:
  
 A1 = (   0.0000000000,  -4.0099993050,   0.0000000000)
 A2 = (  -4.2799999450,   0.0000000000,   0.0000000000)
 A3 = (   0.0000000000,   0.0000000000, -22.2300000000)
 
   4 primitive cells build up your supercell.
 

 Subroutine MAGSYM returns: Found  4 space group operations
 (whereof  2 operations were pure point group operations)
 out of a pool of  4 trial space group operations
 (whereof  2 operations were pure point group operations)
 and found also     4 'primitive' translations


The magnetic configuration has the point symmetry C_1h.
 The point group associated with its full space group is C_2v.
 
 
 KPOINTS:  Automatic mesh                         

Automatic generation of k-mesh.
Space group operators:
 irot       det(A)        alpha          n_x          n_y          n_z        tau_x        tau_y        tau_z
    1     1.000000     0.000000     1.000000     0.000000     0.000000     0.000000     0.000000     0.000000
    2    -1.000000   180.000000     0.000000     1.000000     0.000000     0.000000     0.000000     0.000000
    3     1.000000   180.000000     0.000000     0.000000     1.000000    -0.333294    -0.250000     0.000000
    4    -1.000000   180.000000     1.000000     0.000000     0.000000    -0.333294    -0.250000     0.000000
 
 Subroutine IBZKPT returns following result:
 ===========================================
 
 Found      4 irreducible k-points:
 
 Following reciprocal coordinates:
            Coordinates               Weight
  0.000000  0.000000  0.000000      1.000000
  0.333333  0.000000  0.000000      2.000000
  0.000000  0.333333  0.000000      2.000000
  0.333333  0.333333  0.000000      4.000000
 
 Following cartesian coordinates:
            Coordinates               Weight
  0.000000  0.000000  0.000000      1.000000
  0.096184  0.000000  0.000000      2.000000
  0.000000  0.102660  0.000000      2.000000
  0.096184  0.102660  0.000000      4.000000
 


--------------------------------------------------------------------------------------------------------




 Dimension of arrays:
   k-points           NKPTS =      4   k-points in BZ     NKDIM =      4   number of bands    NBANDS=    200
   number of dos      NEDOS =    301   number of ions     NIONS =     32
   non local maximal  LDIM  =      6   non local SUM 2l+1 LMDIM =     18
   total plane-waves  NPLWV = 188160
   max r-space proj   IRMAX =   1293   max aug-charges    IRDMAX=   5061
   dimension x,y,z NGX =    42 NGY =   40 NGZ =  112
   dimension x,y,z NGXF=    84 NGYF=   80 NGZF=  224
   support grid    NGXF=    84 NGYF=   80 NGZF=  224
   ions per type =              32
 NGX,Y,Z   is equivalent  to a cutoff of   8.16,  8.29,  8.38 a.u.
 NGXF,Y,Z  is equivalent  to a cutoff of  16.31, 16.58, 16.75 a.u.


 I would recommend the setting:
   dimension x,y,z NGX =    42 NGY =   39 NGZ =  109
 SYSTEM =  unknown system                          
 POSCAR =  Co                                      

 Startparameter for this run:
   NWRITE =      2    write-flag & timer
   PREC   = normal    normal or accurate (medium, high low for compatibility)
   ISTART =      0    job   : 0-new  1-cont  2-samecut
   ICHARG =      2    charge: 1-file 2-atom 10-const
   ISPIN  =      2    spin polarized calculation?
   LNONCOLLINEAR =      F non collinear calculations
   LSORBIT =      F    spin-orbit coupling
   INIWAV =      1    electr: 0-lowe 1-rand  2-diag
   LASPH  =      F    aspherical Exc in radial PAW
   METAGGA=      F    non-selfconsistent MetaGGA calc.
   LSOL =      F    Solvation

 Electronic Relaxation 1
   ENCUT  =  400.0 eV  29.40 Ry    5.42 a.u.  13.96 13.08 36.25*2*pi/ulx,y,z
   ENINI  =  400.0     initial cutoff
   ENAUG  =  644.9 eV  augmentation charge cutoff
   NELM   =     60;   NELMIN=  2; NELMDL= -5     # of ELM steps 
   EDIFF  = 0.1E-05   stopping-criterion for ELM
   LREAL  =      T    real-space projection
   NLSPLINE    = F    spline interpolate recip. space projectors
   LCOMPAT=      F    compatible to vasp.4.4
   GGA_COMPAT  = T    GGA compatible to vasp.4.4-vasp.4.6
   LMAXPAW     = -100 max onsite density
   LMAXMIX     =    2 max onsite mixed and CHGCAR
   VOSKOWN=      0    Vosko Wilk Nusair interpolation
   ROPT   =   -0.00050
 Ionic relaxation
   EDIFFG = -.1E-01   stopping-criterion for IOM
   NSW    =    400    number of steps for IOM
   NBLOCK =      1;   KBLOCK =    400    inner block; outer block 
   IBRION =      2    ionic relax: 0-MD 1-quasi-New 2-CG
   NFREE  =      1    steps in history (QN), initial steepest desc. (CG)
   ISIF   =      2    stress and relaxation
   IWAVPR =     11    prediction:  0-non 1-charg 2-wave 3-comb
   ISYM   =      2    0-nonsym 1-usesym 2-fastsym
   LCORR  =      T    Harris-Foulkes like correction to forces

   POTIM  = 0.5000    time-step for ionic-motion
   TEIN   =    0.0    initial temperature
   TEBEG  =    0.0;   TEEND  =   0.0 temperature during run
   SMASS  =  -3.00    Nose mass-parameter (am)
   estimated Nose-frequenzy (Omega)   =  0.10E-29 period in steps =****** mass=  -0.167E-26a.u.
   SCALEE = 1.0000    scale energy and forces
   NPACO  =    256;   APACO  = 16.0  distance and # of slots for P.C.
   PSTRESS=    0.0 pullay stress

  Mass of Ions in am
   POMASS =  58.93
  Ionic Valenz
   ZVAL   =   9.00
  Atomic Wigner-Seitz radii
   RWIGS  =  -1.00
  virtual crystal weights 
   VCA    =   1.00
   NELECT =     288.0000    total number of electrons
   NUPDOWN=      -1.0000    fix difference up-down

 DOS related values:
   EMIN   =  10.00;   EMAX   =-10.00  energy-range for DOS
   EFERMI =   0.00
   ISMEAR =     2;   SIGMA  =   0.20  broadening in eV -4-tet -1-fermi 0-gaus

 Electronic relaxation 2 (details)
   IALGO  =     38    algorithm
   LDIAG  =      T    sub-space diagonalisation (order eigenvalues)
   LSUBROT=      F    optimize rotation matrix (better conditioning)
   TURBO    =      0    0=normal 1=particle mesh
   IRESTART =      0    0=no restart 2=restart with 2 vectors
   NREBOOT  =      0    no. of reboots
   NMIN     =      0    reboot dimension
   EREF     =   0.00    reference energy to select bands
   IMIX   =      4    mixing-type and parameters
     AMIX     =   0.40;   BMIX     =  1.00
     AMIX_MAG =   1.60;   BMIX_MAG =  1.00
     AMIN     =   0.10
     WC   =   100.;   INIMIX=   1;  MIXPRE=   1;  MAXMIX= -45

 Intra band minimization:
   WEIMIN = 0.0010     energy-eigenvalue tresh-hold
   EBREAK =  0.13E-08  absolut break condition
   DEPER  =   0.30     relativ break condition  

   TIME   =   0.40     timestep for ELM

  volume/ion in A,a.u.               =      47.69       321.84
  Fermi-wavevector in a.u.,A,eV,Ry     =   0.939024  1.774497 11.997145  0.881765
  Thomas-Fermi vector in A             =   2.066294
 
 Write flags
   LWAVE  =      F    write WAVECAR
   LCHARG =      F    write CHGCAR
   LVTOT  =      F    write LOCPOT, total local potential
   LVHAR  =      F    write LOCPOT, Hartree potential only
   LELF   =      F    write electronic localiz. function (ELF)
   LORBIT =      0    0 simple, 1 ext, 2 COOP (PROOUT)


 Dipole corrections
   LMONO  =      F    monopole corrections only (constant potential shift)
   LDIPOL =      F    correct potential (dipole corrections)
   IDIPOL =      3    1-x, 2-y, 3-z, 4-all directions 
   EPSILON=  1.0000000 bulk dielectric constant

 Exchange correlation treatment:
   GGA     =    PE    GGA type
   LEXCH   =     8    internal setting for exchange type
   VOSKOWN=      0    Vosko Wilk Nusair interpolation
   LHFCALC =     F    Hartree Fock is set to
   LHFONE  =     F    Hartree Fock one center treatment
   AEXX    =    0.0000 exact exchange contribution

 Linear response parameters
   LEPSILON=     F    determine dielectric tensor
   LRPA    =     F    only Hartree local field effects (RPA)
   LNABLA  =     F    use nabla operator in PAW spheres
   LVEL    =     F    velocity operator in full k-point grid
   LINTERFAST=   F  fast interpolation
   KINTER  =     0    interpolate to denser k-point grid
   CSHIFT  =0.1000    complex shift for real part using Kramers Kronig
   OMEGAMAX=  -1.0    maximum frequency
   DEG_THRESHOLD= 0.2000000E-02 threshold for treating states as degnerate
   RTIME   =    0.100 relaxation time in fs

 Orbital magnetization related:
   ORBITALMAG=     F  switch on orbital magnetization
   LCHIMAG   =     F  perturbation theory with respect to B field
   DQ        =  0.001000  dq finite difference perturbation B field



--------------------------------------------------------------------------------------------------------


 conjugate gradient relaxation of ions
   using selective dynamics as specified on POSCAR
 charge density and potential will be updated during run
 spin polarized calculation
 Variant of blocked Davidson
 Davidson routine will perform the subspace rotation
 perform sub-space diagonalisation
    after iterative eigenvector-optimisation
 modified Broyden-mixing scheme, WC =      100.0
 initial mixing is a Kerker type mixing with AMIX =  0.4000 and BMIX =      1.0000
 Hartree-type preconditioning will be used
 using additional bands           56
 real space projection scheme for non local part
 use partial core corrections
 calculate Harris-corrections to forces 
   (improved forces if not selfconsistent)
 use gradient corrections 
 use of overlap-Matrix (Vanderbilt PP)
 Methfessel and Paxton  Order N= 2 SIGMA  =   0.20


--------------------------------------------------------------------------------------------------------


  energy-cutoff  :      400.00
  volume of cell :     1526.12
      direct lattice vectors                 reciprocal lattice vectors
     8.559999890  0.000000000  0.000000000     0.116822431  0.000000000  0.000000000
     0.000000000  8.019998610  0.000000000     0.000000000  0.124688301  0.000000000
     0.000000000  0.000000000 22.230000000     0.000000000  0.000000000  0.044984256

  length of vectors
     8.559999890  8.019998610 22.230000000     0.116822431  0.124688301  0.044984256


 
 k-points in units of 2pi/SCALE and weight:  Automatic mesh                         
   0.00000000  0.00000000  0.00000000       0.111
   0.09618380  0.00000000  0.00000000       0.222
   0.00000000  0.10266003  0.00000000       0.222
   0.09618380  0.10266003  0.00000000       0.444
 
 k-points in reciprocal lattice and weights:  Automatic mesh                         
   0.00000000  0.00000000  0.00000000       0.111
   0.33333333  0.00000000  0.00000000       0.222
   0.00000000  0.33333333  0.00000000       0.222
   0.33333333  0.33333333  0.00000000       0.444
 
 position of ions in fractional coordinates (direct lattice) 
   0.49999899  0.49999954  0.00000000
   0.66670668  0.74999931  0.00000000
   0.49999899  0.00000000  0.00000000
   0.66670668  0.25000008  0.00000000
   0.00000000  0.49999954  0.00000000
   0.16670567  0.74999931  0.00000000
   0.00000000  0.00000000  0.00000000
   0.16670567  0.25000008  0.00000000
   0.74999993  0.49999954  0.05555556
   0.91670473  0.74999931  0.05555556
   0.74999993  0.00000000  0.05555556
   0.91670473  0.25000008  0.05555556
   0.25000007  0.49999954  0.05555556
   0.41670574  0.74999931  0.05555556
   0.25000007  0.00000000  0.05555556
   0.41670574  0.25000008  0.05555556
   0.50112132  0.49999954  0.11287193
   0.66558435  0.74999931  0.11287193
   0.50112132  0.00000000  0.11287193
   0.66558435  0.25000008  0.11287193
   0.00112120  0.49999954  0.11287193
   0.16558449  0.74999931  0.11287193
   0.00112120  0.00000000  0.11287193
   0.16558449  0.25000008  0.11287193
   0.75589705  0.49999954  0.16321346
   0.91080761  0.74999931  0.16321346
   0.75589705  0.00000000  0.16321346
   0.91080761  0.25000008  0.16321346
   0.25589835  0.49999954  0.16321346
   0.41080862  0.74999931  0.16321346
   0.25589835  0.00000000  0.16321346
   0.41080862  0.25000008  0.16321346
 
 position of ions in cartesian coordinates  (Angst):
   4.27999130  4.00999560  0.00000000
   5.70700910  6.01499340  0.00000000
   4.27999130  0.00000000  0.00000000
   5.70700910  2.00500027  0.00000000
   0.00000000  4.00999560  0.00000000
   1.42700051  6.01499340  0.00000000
   0.00000000  0.00000000  0.00000000
   1.42700051  2.00500027  0.00000000
   6.41999930  4.00999560  1.23500000
   7.84699240  6.01499340  1.23500000
   6.41999930  0.00000000  1.23500000
   7.84699240  2.00500027  1.23500000
   2.14000059  4.00999560  1.23500000
   3.56700110  6.01499340  1.23500000
   2.14000059  0.00000000  1.23500000
   3.56700110  2.00500027  1.23500000
   4.28959844  4.00999560  2.50914303
   5.69740196  6.01499340  2.50914303
   4.28959844  0.00000000  2.50914303
   5.69740196  2.00500027  2.50914303
   0.00959743  4.00999560  2.50914303
   1.41740325  6.01499340  2.50914303
   0.00959743  0.00000000  2.50914303
   1.41740325  2.00500027  2.50914303
   6.47047864  4.00999560  3.62823511
   7.79651306  6.01499340  3.62823511
   6.47047864  0.00000000  3.62823511
   7.79651306  2.00500027  3.62823511
   2.19048981  4.00999560  3.62823511
   3.51652176  6.01499340  3.62823511
   2.19048981  0.00000000  3.62823511
   3.51652176  2.00500027  3.62823511
 


--------------------------------------------------------------------------------------------------------


 k-point  1 :   0.0000 0.0000 0.0000  plane waves:   27673
 k-point  2 :   0.3333 0.0000 0.0000  plane waves:   27720
 k-point  3 :   0.0000 0.3333 0.0000  plane waves:   27710
 k-point  4 :   0.3333 0.3333 0.0000  plane waves:   27742

 maximum and minimum number of plane-waves per node :     27742    27673

 maximum number of plane-waves:     27742
 maximum index in each direction: 
   IXMAX=   13   IYMAX=   13   IZMAX=   36
   IXMIN=  -14   IYMIN=  -13   IZMIN=  -36

 WARNING: aliasing errors must be expected set NGX to  56 to avoid them
 WARNING: aliasing errors must be expected set NGY to  54 to avoid them
 WARNING: aliasing errors must be expected set NGZ to 146 to avoid them
 aliasing errors are usually negligible using standard VASP settings
 and one can safely disregard these warnings

 serial   3D FFT for wavefunctions
 parallel 3D FFT for charge:
    minimum data exchange during FFTs selected (reduces bandwidth)


 total amount of memory used by VASP on root node   165185. kBytes
========================================================================

   base      :      30000. kBytes
   nonlr-proj:       6802. kBytes
   fftplans  :       7367. kBytes
   grid      :      29397. kBytes
   one-center:        995. kBytes
   wavefun   :      90624. kBytes
 
     INWAV:  cpu time    0.00: real time    0.00
 Broyden mixing: mesh for mixing (old mesh)
   NGX = 27   NGY = 27   NGZ = 73
  (NGX  = 84   NGY  = 80   NGZ  =224)
  gives a total of  53217 points

 initial charge density was supplied:
 charge density of overlapping atoms calculated
 number of electron     288.0000000 magnetization      52.1600000
 keeping initial charge density in first step


--------------------------------------------------------------------------------------------------------


 Maximum index for non-local projection operator         1221
 Maximum index for augmentation-charges          779 (set IRDMAX)


--------------------------------------------------------------------------------------------------------


 First call to EWALD:  gamma=   0.154
 Maximum number of real-space cells 4x 4x 2
 Maximum number of reciprocal cells 2x 2x 5

 FEWALD executed in parallel
    FEWALD:  cpu time    0.00: real time    0.00


----------------------------------------- Iteration    1(   1)  ---------------------------------------


    POTLOK:  cpu time    0.52: real time    0.52
    SETDIJ:  cpu time    0.05: real time    0.05
     EDDAV:  cpu time   19.56: real time   19.62
       DOS:  cpu time    0.00: real time    0.00
    --------------------------------------------
      LOOP:  cpu time   20.13: real time   20.20

 eigenvalue-minimisations  :  3200
 total energy-change (2. order) : 0.1887946E+04  (-0.1007982E+05)
 number of electron     288.0000000 magnetization      52.1600000
 augmentation part      288.0000000 magnetization      52.1600000

 Free energy of the ion-electron system (eV)
  ---------------------------------------------------
  alpha Z        PSCENC =       284.21351034
  Ewald energy   TEWEN  =    101749.30852599
  -Hartree energ DENC   =   -126106.11539915
  -exchange      EXHF   =         0.00000000
  -V(xc)+E(xc)   XCENC  =       529.73740382
  PAW double counting   =     23062.80310794   -24758.99480924
  entropy T*S    EENTRO =         0.00468517
  eigenvalues    EBANDS =      1099.54185902
  atomic energy  EATOM  =     26027.44749122
  Solvation contrib.  Ediel  =         0.00000000
  ---------------------------------------------------
  free energy    TOTEN  =      1887.94637511 eV

  energy without entropy =     1887.94168994  energy(sigma->0) =     1887.94520382


--------------------------------------------------------------------------------------------------------




----------------------------------------- Iteration    1(   2)  ---------------------------------------


     EDDAV:  cpu time   18.80: real time   18.80
       DOS:  cpu time    0.00: real time    0.00
    --------------------------------------------
      LOOP:  cpu time   18.80: real time   18.84

 eigenvalue-minimisations  :  3208
 total energy-change (2. order) :-0.1993034E+04  (-0.1869721E+04)
 number of electron     288.0000000 magnetization      52.1600000
 augmentation part      288.0000000 magnetization      52.1600000

 Free energy of the ion-electron system (eV)
  ---------------------------------------------------
  alpha Z        PSCENC =       284.21351034
  Ewald energy   TEWEN  =    101749.30852599
  -Hartree energ DENC   =   -126106.11539915
  -exchange      EXHF   =         0.00000000
  -V(xc)+E(xc)   XCENC  =       529.73740382
  PAW double counting   =     23062.80310794   -24758.99480924
  entropy T*S    EENTRO =        -0.00401719
  eigenvalues    EBANDS =      -893.48313437
  atomic energy  EATOM  =     26027.44749122
  Solvation contrib.  Ediel  =         0.00000000
  ---------------------------------------------------
  free energy    TOTEN  =      -105.08732064 eV

  energy without entropy =     -105.08330346  energy(sigma->0) =     -105.08631635


--------------------------------------------------------------------------------------------------------




----------------------------------------- Iteration    1(   3)  ---------------------------------------


     EDDAV:  cpu time   20.00: real time   20.01
       DOS:  cpu time    0.00: real time    0.00
    --------------------------------------------
      LOOP:  cpu time   20.01: real time   20.06

 eigenvalue-minimisations  :  3440
 total energy-change (2. order) :-0.1235776E+03  (-0.1135295E+03)
 number of electron     288.0000000 magnetization      52.1600000
 augmentation part      288.0000000 magnetization      52.1600000

 Free energy of the ion-electron system (eV)
  ---------------------------------------------------
  alpha Z        PSCENC =       284.21351034
  Ewald energy   TEWEN  =    101749.30852599
  -Hartree energ DENC   =   -126106.11539915
  -exchange      EXHF   =         0.00000000
  -V(xc)+E(xc)   XCENC  =       529.73740382
  PAW double counting   =     23062.80310794   -24758.99480924
  entropy T*S    EENTRO =        -0.06809716
  eigenvalues    EBANDS =     -1016.99662645
  atomic energy  EATOM  =     26027.44749122
  Solvation contrib.  Ediel  =         0.00000000
  ---------------------------------------------------
  free energy    TOTEN  =      -228.66489269 eV

  energy without entropy =     -228.59679554  energy(sigma->0) =     -228.64786840


--------------------------------------------------------------------------------------------------------




----------------------------------------- Iteration    1(   4)  ---------------------------------------


     EDDAV:  cpu time   20.10: real time   20.12
       DOS:  cpu time    0.00: real time    0.00
    --------------------------------------------
      LOOP:  cpu time   20.10: real time   20.17

 eigenvalue-minimisations  :  3480
 total energy-change (2. order) :-0.3873646E+01  (-0.3788209E+01)
 number of electron     288.0000000 magnetization      52.1600000
 augmentation part      288.0000000 magnetization      52.1600000

 Free energy of the ion-electron system (eV)
  ---------------------------------------------------
  alpha Z        PSCENC =       284.21351034
  Ewald energy   TEWEN  =    101749.30852599
  -Hartree energ DENC   =   -126106.11539915
  -exchange      EXHF   =         0.00000000
  -V(xc)+E(xc)   XCENC  =       529.73740382
  PAW double counting   =     23062.80310794   -24758.99480924
  entropy T*S    EENTRO =        -0.06738999
  eigenvalues    EBANDS =     -1020.87097989
  atomic energy  EATOM  =     26027.44749122
  Solvation contrib.  Ediel  =         0.00000000
  ---------------------------------------------------
  free energy    TOTEN  =      -232.53853896 eV

  energy without entropy =     -232.47114897  energy(sigma->0) =     -232.52169146


--------------------------------------------------------------------------------------------------------




----------------------------------------- Iteration    1(   5)  ---------------------------------------


     EDDAV:  cpu time   23.54: real time   23.54
       DOS:  cpu time    0.00: real time    0.00
    CHARGE:  cpu time    1.10: real time    1.10
    MIXING:  cpu time    0.01: real time    0.01
    --------------------------------------------
      LOOP:  cpu time   24.64: real time   24.78

 eigenvalue-minimisations  :  4224
 total energy-change (2. order) :-0.9501473E-01  (-0.9483234E-01)
 number of electron     288.0000925 magnetization      52.7446032
 augmentation part      149.8045723 magnetization      38.7051759

 Broyden mixing:
  rms(total) = 0.58407E+01    rms(broyden)= 0.58405E+01
  rms(prec ) = 0.61147E+01
  weight for this iteration     100.00

 Free energy of the ion-electron system (eV)
  ---------------------------------------------------
  alpha Z        PSCENC =       284.21351034
  Ewald energy   TEWEN  =    101749.30852599
  -Hartree energ DENC   =   -126106.11539915
  -exchange      EXHF   =         0.00000000
  -V(xc)+E(xc)   XCENC  =       529.73740382
  PAW double counting   =     23062.80310794   -24758.99480924
  entropy T*S    EENTRO =        -0.06720960
  eigenvalues    EBANDS =     -1020.96617500
  atomic energy  EATOM  =     26027.44749122
  Solvation contrib.  Ediel  =         0.00000000
  ---------------------------------------------------
  free energy    TOTEN  =      -232.63355369 eV

  energy without entropy =     -232.56634409  energy(sigma->0) =     -232.61675129


--------------------------------------------------------------------------------------------------------




----------------------------------------- Iteration    1(   6)  ---------------------------------------


    POTLOK:  cpu time    0.40: real time    0.40
    SETDIJ:  cpu time    0.04: real time    0.04
     EDDAV:  cpu time   21.72: real time   21.72
       DOS:  cpu time    0.00: real time    0.00
    CHARGE:  cpu time    1.11: real time    1.11
    MIXING:  cpu time    0.01: real time    0.01
    --------------------------------------------
      LOOP:  cpu time   23.28: real time   23.32

 eigenvalue-minimisations  :  3832
 total energy-change (2. order) :-0.5739437E+02  (-0.3153442E+02)
 number of electron     288.0000732 magnetization      52.1266516
 augmentation part      166.5946620 magnetization      47.8661765

 Broyden mixing:
  rms(total) = 0.12734E+02    rms(broyden)= 0.12734E+02
  rms(prec ) = 0.13673E+02
  weight for this iteration     100.00

 eigenvalues of (default mixing * dielectric matrix)
  average eigenvalue GAMMA=   0.2557
  0.2557

 Free energy of the ion-electron system (eV)
  ---------------------------------------------------
  alpha Z        PSCENC =       284.21351034
  Ewald energy   TEWEN  =    101749.30852599
  -Hartree energ DENC   =   -125783.79260996
  -exchange      EXHF   =         0.00000000
  -V(xc)+E(xc)   XCENC  =       514.13573601
  PAW double counting   =     24957.91369692   -26507.86254010
  entropy T*S    EENTRO =         0.05493915
  eigenvalues    EBANDS =     -1531.44666995
  atomic energy  EATOM  =     26027.44749122
  Solvation contrib.  Ediel  =         0.00000000
  ---------------------------------------------------
  free energy    TOTEN  =      -290.02792039 eV

  energy without entropy =     -290.08285954  energy(sigma->0) =     -290.04165517


--------------------------------------------------------------------------------------------------------




----------------------------------------- Iteration    1(   7)  ---------------------------------------


    POTLOK:  cpu time    0.40: real time    0.40
    SETDIJ:  cpu time    0.04: real time    0.04
     EDDAV:  cpu time   20.92: real time   20.92
       DOS:  cpu time    0.00: real time    0.00
    CHARGE:  cpu time    1.08: real time    1.08
    MIXING:  cpu time    0.01: real time    0.04
    --------------------------------------------
      LOOP:  cpu time   22.46: real time   22.52

 eigenvalue-minimisations  :  3656
 total energy-change (2. order) : 0.5907520E+02  (-0.2337655E+02)
 number of electron     288.0001181 magnetization      51.8387358
 augmentation part      173.0857943 magnetization      41.2572434

 Broyden mixing:
  rms(total) = 0.71454E+01    rms(broyden)= 0.71447E+01
  rms(prec ) = 0.77418E+01
  weight for this iteration     100.00

 eigenvalues of (default mixing * dielectric matrix)
  average eigenvalue GAMMA=   0.3833
  0.6229  0.1437

 Free energy of the ion-electron system (eV)
  ---------------------------------------------------
  alpha Z        PSCENC =       284.21351034
  Ewald energy   TEWEN  =    101749.30852599
  -Hartree energ DENC   =   -125700.59485114
  -exchange      EXHF   =         0.00000000
  -V(xc)+E(xc)   XCENC  =       508.38524388
  PAW double counting   =     25358.45844639   -26929.58363158
  entropy T*S    EENTRO =         0.05204859
  eigenvalues    EBANDS =     -1528.63950148
  atomic energy  EATOM  =     26027.44749122
  Solvation contrib.  Ediel  =         0.00000000
  ---------------------------------------------------
  free energy    TOTEN  =      -230.95271780 eV

  energy without entropy =     -231.00476639  energy(sigma->0) =     -230.96572995


--------------------------------------------------------------------------------------------------------




----------------------------------------- Iteration    1(   8)  ---------------------------------------


    POTLOK:  cpu time    0.44: real time    0.44
    SETDIJ:  cpu time    0.04: real time    0.04
     EDDAV:  cpu time   23.04: real time   23.04
       DOS:  cpu time    0.00: real time    0.00
    CHARGE:  cpu time    1.18: real time    1.18
    MIXING:  cpu time    0.01: real time    0.01
    --------------------------------------------
      LOOP:  cpu time   24.70: real time   24.74

 eigenvalue-minimisations  :  4176
 total energy-change (2. order) : 0.2339758E+02  (-0.7199699E+01)
 number of electron     288.0000914 magnetization      51.7822062
 augmentation part      166.8012788 magnetization      42.3976806

 Broyden mixing:
  rms(total) = 0.51125E+01    rms(broyden)= 0.51120E+01
  rms(prec ) = 0.57515E+01
  weight for this iteration     100.00

 eigenvalues of (default mixing * dielectric matrix)
  average eigenvalue GAMMA=   0.3993
  0.7937  0.2578  0.1465

 Free energy of the ion-electron system (eV)
  ---------------------------------------------------
  alpha Z        PSCENC =       284.21351034
  Ewald energy   TEWEN  =    101749.30852599
  -Hartree energ DENC   =   -125958.38254918
  -exchange      EXHF   =         0.00000000
  -V(xc)+E(xc)   XCENC  =       512.66212137
  PAW double counting   =     26414.24566823   -28063.15892967
  entropy T*S    EENTRO =         0.02134824
  eigenvalues    EBANDS =     -1173.91232755
  atomic energy  EATOM  =     26027.44749122
  Solvation contrib.  Ediel  =         0.00000000
  ---------------------------------------------------
  free energy    TOTEN  =      -207.55514102 eV

  energy without entropy =     -207.57648926  energy(sigma->0) =     -207.56047808


--------------------------------------------------------------------------------------------------------




----------------------------------------- Iteration    1(   9)  ---------------------------------------


    POTLOK:  cpu time    0.42: real time    0.42
    SETDIJ:  cpu time    0.04: real time    0.04
     EDDAV:  cpu time   23.89: real time   23.89
       DOS:  cpu time    0.00: real time    0.00
    CHARGE:  cpu time    1.10: real time    1.10
    MIXING:  cpu time    0.01: real time    0.01
    --------------------------------------------
      LOOP:  cpu time   25.46: real time   25.50

 eigenvalue-minimisations  :  4352
 total energy-change (2. order) :-0.2637848E+02  (-0.4982812E+01)
 number of electron     288.0001092 magnetization      51.4063276
 augmentation part      163.8652518 magnetization      44.7922948

 Broyden mixing:
  rms(total) = 0.82374E+01    rms(broyden)= 0.82369E+01
  rms(prec ) = 0.10050E+02
  weight for this iteration     100.00

 eigenvalues of (default mixing * dielectric matrix)
  average eigenvalue GAMMA=   0.3999
  0.8034  0.5368  0.1297  0.1297

 Free energy of the ion-electron system (eV)
  ---------------------------------------------------
  alpha Z        PSCENC =       284.21351034
  Ewald energy   TEWEN  =    101749.30852599
  -Hartree energ DENC   =   -126019.90067367
  -exchange      EXHF   =         0.00000000
  -V(xc)+E(xc)   XCENC  =       514.74086050
  PAW double counting   =     26811.43082025   -28484.13888730
  entropy T*S    EENTRO =        -0.05008632
  eigenvalues    EBANDS =     -1116.98518046
  atomic energy  EATOM  =     26027.44749122
  Solvation contrib.  Ediel  =         0.00000000
  ---------------------------------------------------
  free energy    TOTEN  =      -233.93361946 eV

  energy without entropy =     -233.88353314  energy(sigma->0) =     -233.92109788


--------------------------------------------------------------------------------------------------------




----------------------------------------- Iteration    1(  10)  ---------------------------------------


    POTLOK:  cpu time    0.40: real time    0.40
    SETDIJ:  cpu time    0.04: real time    0.04
     EDDAV:  cpu time   23.52: real time   23.52
       DOS:  cpu time    0.00: real time    0.00
    CHARGE:  cpu time    1.12: real time    1.12
    MIXING:  cpu time    0.01: real time    0.01
    --------------------------------------------
      LOOP:  cpu time   25.09: real time   25.13

 eigenvalue-minimisations  :  4248
 total energy-change (2. order) : 0.1946473E+02  (-0.3605110E+01)
 number of electron     288.0000805 magnetization      51.2010166
 augmentation part      163.2680927 magnetization      43.8433269

 Broyden mixing:
  rms(total) = 0.60489E+01    rms(broyden)= 0.60484E+01
  rms(prec ) = 0.69363E+01
  weight for this iteration     100.00

 eigenvalues of (default mixing * dielectric matrix)
  average eigenvalue GAMMA=   0.3643
  0.6991  0.6991  0.1728  0.1728  0.0775

 Free energy of the ion-electron system (eV)
  ---------------------------------------------------
  alpha Z        PSCENC =       284.21351034
  Ewald energy   TEWEN  =    101749.30852599
  -Hartree energ DENC   =   -126048.20986285
  -exchange      EXHF   =         0.00000000
  -V(xc)+E(xc)   XCENC  =       513.41161862
  PAW double counting   =     27113.85077441   -28797.49890094
  entropy T*S    EENTRO =        -0.05281919
  eigenvalues    EBANDS =     -1056.93923010
  atomic energy  EATOM  =     26027.44749122
  Solvation contrib.  Ediel  =         0.00000000
  ---------------------------------------------------
  free energy    TOTEN  =      -214.46889251 eV

  energy without entropy =     -214.41607332  energy(sigma->0) =     -214.45568771


--------------------------------------------------------------------------------------------------------




----------------------------------------- Iteration    1(  11)  ---------------------------------------


    POTLOK:  cpu time    0.49: real time    0.49
    SETDIJ:  cpu time    0.04: real time    0.04
     EDDAV:  cpu time   23.06: real time   23.07
       DOS:  cpu time    0.00: real time    0.00
    CHARGE:  cpu time    1.14: real time    1.14
    MIXING:  cpu time    0.01: real time    0.01
    --------------------------------------------
      LOOP:  cpu time   24.75: real time   26.80

 eigenvalue-minimisations  :  4192
 total energy-change (2. order) : 0.9160189E+01  (-0.2033933E+01)
 number of electron     288.0000897 magnetization      51.0444675
 augmentation part      164.0957333 magnetization      41.3422536

 Broyden mixing:
  rms(total) = 0.36531E+01    rms(broyden)= 0.36528E+01
  rms(prec ) = 0.40101E+01
  weight for this iteration     100.00

 eigenvalues of (default mixing * dielectric matrix)
  average eigenvalue GAMMA=   0.4304
  1.1300  0.5563  0.5563  0.1513  0.1069  0.0817

 Free energy of the ion-electron system (eV)
  ---------------------------------------------------
  alpha Z        PSCENC =       284.21351034
  Ewald energy   TEWEN  =    101749.30852599
  -Hartree energ DENC   =   -126029.32247058
  -exchange      EXHF   =         0.00000000
  -V(xc)+E(xc)   XCENC  =       512.95358246
  PAW double counting   =     27187.04885882   -28870.55241676
  entropy T*S    EENTRO =         0.00206503
  eigenvalues    EBANDS =     -1066.40784990
  atomic energy  EATOM  =     26027.44749122
  Solvation contrib.  Ediel  =         0.00000000
  ---------------------------------------------------
  free energy    TOTEN  =      -205.30870339 eV

  energy without entropy =     -205.31076842  energy(sigma->0) =     -205.30921965


--------------------------------------------------------------------------------------------------------




----------------------------------------- Iteration    1(  12)  ---------------------------------------


    POTLOK:  cpu time    0.40: real time    0.40
    SETDIJ:  cpu time    0.04: real time    0.04
     EDDAV:  cpu time   22.52: real time   22.52
       DOS:  cpu time    0.00: real time    0.00
    CHARGE:  cpu time    1.12: real time    1.12
    MIXING:  cpu time    0.01: real time    0.01
    --------------------------------------------
      LOOP:  cpu time   24.09: real time   24.13

 eigenvalue-minimisations  :  4096
 total energy-change (2. order) : 0.4886467E+01  (-0.8693558E+00)
 number of electron     288.0000983 magnetization      51.1476088
 augmentation part      164.1380162 magnetization      40.9604831

 Broyden mixing:
  rms(total) = 0.15856E+01    rms(broyden)= 0.15848E+01
  rms(prec ) = 0.16730E+01
  weight for this iteration     100.00

 eigenvalues of (default mixing * dielectric matrix)
  average eigenvalue GAMMA=   0.4097
  1.2503  0.5247  0.5247  0.2159  0.1553  0.1132  0.0835

 Free energy of the ion-electron system (eV)
  ---------------------------------------------------
  alpha Z        PSCENC =       284.21351034
  Ewald energy   TEWEN  =    101749.30852599
  -Hartree energ DENC   =   -126027.67100980
  -exchange      EXHF   =         0.00000000
  -V(xc)+E(xc)   XCENC  =       513.77070804
  PAW double counting   =     27494.70227635   -29185.05243041
  entropy T*S    EENTRO =        -0.09570575
  eigenvalues    EBANDS =     -1057.04560241
  atomic energy  EATOM  =     26027.44749122
  Solvation contrib.  Ediel  =         0.00000000
  ---------------------------------------------------
  free energy    TOTEN  =      -200.42223645 eV

  energy without entropy =     -200.32653070  energy(sigma->0) =     -200.39831001


--------------------------------------------------------------------------------------------------------




----------------------------------------- Iteration    1(  13)  ---------------------------------------


    POTLOK:  cpu time    0.41: real time    0.41
    SETDIJ:  cpu time    0.04: real time    0.04
     EDDAV:  cpu time   19.12: real time   19.12
       DOS:  cpu time    0.00: real time    0.00
    CHARGE:  cpu time    1.14: real time    1.14
    MIXING:  cpu time    0.01: real time    0.01
    --------------------------------------------
      LOOP:  cpu time   20.72: real time   20.75

 eigenvalue-minimisations  :  3336
 total energy-change (2. order) :-0.7606669E+00  (-0.3526496E+00)
 number of electron     288.0000976 magnetization      51.0737707
 augmentation part      163.9201860 magnetization      41.8489704

 Broyden mixing:
  rms(total) = 0.11963E+01    rms(broyden)= 0.11962E+01
  rms(prec ) = 0.12235E+01
  weight for this iteration     100.00

 eigenvalues of (default mixing * dielectric matrix)
  average eigenvalue GAMMA=   0.4261
  1.2300  0.5705  0.5705  0.3512  0.3392  0.1532  0.1111  0.0829

 Free energy of the ion-electron system (eV)
  ---------------------------------------------------
  alpha Z        PSCENC =       284.21351034
  Ewald energy   TEWEN  =    101749.30852599
  -Hartree energ DENC   =   -126037.77368565
  -exchange      EXHF   =         0.00000000
  -V(xc)+E(xc)   XCENC  =       514.11507863
  PAW double counting   =     27638.74392213   -29331.35862292
  entropy T*S    EENTRO =        -0.09284183
  eigenvalues    EBANDS =     -1045.78628128
  atomic energy  EATOM  =     26027.44749122
  Solvation contrib.  Ediel  =         0.00000000
  ---------------------------------------------------
  free energy    TOTEN  =      -201.18290338 eV

  energy without entropy =     -201.09006155  energy(sigma->0) =     -201.15969292


--------------------------------------------------------------------------------------------------------




----------------------------------------- Iteration    1(  14)  ---------------------------------------


    POTLOK:  cpu time    0.45: real time    0.45
    SETDIJ:  cpu time    0.04: real time    0.04
     EDDAV:  cpu time   19.56: real time   19.57
       DOS:  cpu time    0.00: real time    0.00
    CHARGE:  cpu time    1.02: real time    1.02
    MIXING:  cpu time    0.01: real time    0.01
    --------------------------------------------
      LOOP:  cpu time   21.10: real time   21.13

 eigenvalue-minimisations  :  3416
 total energy-change (2. order) : 0.3534858E+00  (-0.3623456E-01)
 number of electron     288.0000979 magnetization      51.5832560
 augmentation part      163.8685818 magnetization      42.2323512

 Broyden mixing:
  rms(total) = 0.13101E+01    rms(broyden)= 0.13101E+01
  rms(prec ) = 0.13395E+01
  weight for this iteration     100.00

 eigenvalues of (default mixing * dielectric matrix)
  average eigenvalue GAMMA=   0.5188
  1.2716  0.7231  0.7231  0.5863  0.5863  0.4320  0.1529  0.1110  0.0828

 Free energy of the ion-electron system (eV)
  ---------------------------------------------------
  alpha Z        PSCENC =       284.21351034
  Ewald energy   TEWEN  =    101749.30852599
  -Hartree energ DENC   =   -126036.02766055
  -exchange      EXHF   =         0.00000000
  -V(xc)+E(xc)   XCENC  =       514.03040975
  PAW double counting   =     27611.61511358   -29304.00929668
  entropy T*S    EENTRO =        -0.09680457
  eigenvalues    EBANDS =     -1047.31070666
  atomic energy  EATOM  =     26027.44749122
  Solvation contrib.  Ediel  =         0.00000000
  ---------------------------------------------------
  free energy    TOTEN  =      -200.82941759 eV

  energy without entropy =     -200.73261302  energy(sigma->0) =     -200.80521645


--------------------------------------------------------------------------------------------------------




----------------------------------------- Iteration    1(  15)  ---------------------------------------


    POTLOK:  cpu time    0.40: real time    0.40
    SETDIJ:  cpu time    0.04: real time    0.04
     EDDAV:  cpu time   19.48: real time   19.48
       DOS:  cpu time    0.00: real time    0.00
    CHARGE:  cpu time    1.14: real time    1.14
    MIXING:  cpu time    0.01: real time    0.01
    --------------------------------------------
      LOOP:  cpu time   21.07: real time   21.11

 eigenvalue-minimisations  :  3344
 total energy-change (2. order) :-0.1628932E+01  (-0.1282218E+00)
 number of electron     288.0000980 magnetization      52.0227401
 augmentation part      164.3466446 magnetization      43.7386462

 Broyden mixing:
  rms(total) = 0.10681E+01    rms(broyden)= 0.10681E+01
  rms(prec ) = 0.11133E+01
  weight for this iteration     100.00

 eigenvalues of (default mixing * dielectric matrix)
  average eigenvalue GAMMA=   0.5627
  1.2783  1.0053  1.0053  0.6323  0.6323  0.3843  0.3420  0.1529  0.1110  0.0828

 Free energy of the ion-electron system (eV)
  ---------------------------------------------------
  alpha Z        PSCENC =       284.21351034
  Ewald energy   TEWEN  =    101749.30852599
  -Hartree energ DENC   =   -126036.59503481
  -exchange      EXHF   =         0.00000000
  -V(xc)+E(xc)   XCENC  =       513.95181424
  PAW double counting   =     27874.46239618   -29565.92682627
  entropy T*S    EENTRO =        -0.06236529
  eigenvalues    EBANDS =     -1049.25786136
  atomic energy  EATOM  =     26027.44749122
  Solvation contrib.  Ediel  =         0.00000000
  ---------------------------------------------------
  free energy    TOTEN  =      -202.45834978 eV

  energy without entropy =     -202.39598449  energy(sigma->0) =     -202.44275845


--------------------------------------------------------------------------------------------------------




----------------------------------------- Iteration    1(  16)  ---------------------------------------


    POTLOK:  cpu time    0.40: real time    0.40
    SETDIJ:  cpu time    0.04: real time    0.04
     EDDAV:  cpu time   22.14: real time   22.14
       DOS:  cpu time    0.00: real time    0.00
    CHARGE:  cpu time    1.16: real time    1.16
    MIXING:  cpu time    0.01: real time    0.01
    --------------------------------------------
      LOOP:  cpu time   23.75: real time   23.76

 eigenvalue-minimisations  :  3992
 total energy-change (2. order) :-0.5178028E+00  (-0.4199984E-01)
 number of electron     288.0000985 magnetization      52.2591518
 augmentation part      164.5443172 magnetization      44.4832979

 Broyden mixing:
  rms(total) = 0.85495E+00    rms(broyden)= 0.85494E+00
  rms(prec ) = 0.89678E+00
  weight for this iteration     100.00

 eigenvalues of (default mixing * dielectric matrix)
  average eigenvalue GAMMA=   0.6224
  1.6225  1.0808  1.0808  0.6341  0.6341  0.5098  0.5098  0.4275  0.1529  0.1110
  0.0828

 Free energy of the ion-electron system (eV)
  ---------------------------------------------------
  alpha Z        PSCENC =       284.21351034
  Ewald energy   TEWEN  =    101749.30852599
  -Hartree energ DENC   =   -126038.47719390
  -exchange      EXHF   =         0.00000000
  -V(xc)+E(xc)   XCENC  =       514.66688051
  PAW double counting   =     28010.63932394   -29702.47896525
  entropy T*S    EENTRO =        -0.05536022
  eigenvalues    EBANDS =     -1048.24036526
  atomic energy  EATOM  =     26027.44749122
  Solvation contrib.  Ediel  =         0.00000000
  ---------------------------------------------------
  free energy    TOTEN  =      -202.97615262 eV

  energy without entropy =     -202.92079241  energy(sigma->0) =     -202.96231257


--------------------------------------------------------------------------------------------------------




----------------------------------------- Iteration    1(  17)  ---------------------------------------


    POTLOK:  cpu time    0.40: real time    0.40
    SETDIJ:  cpu time    0.04: real time    0.04
     EDDAV:  cpu time   20.42: real time   20.42
       DOS:  cpu time    0.00: real time    0.00
    CHARGE:  cpu time    1.15: real time    1.15
    MIXING:  cpu time    0.02: real time    0.02
    --------------------------------------------
      LOOP:  cpu time   22.02: real time   22.04

 eigenvalue-minimisations  :  3616
 total energy-change (2. order) : 0.5765425E-01  (-0.1493442E-01)
 number of electron     288.0000979 magnetization      52.7906382
 augmentation part      164.7646539 magnetization      45.2761911

 Broyden mixing:
  rms(total) = 0.64155E+00    rms(broyden)= 0.64154E+00
  rms(prec ) = 0.66261E+00
  weight for this iteration     100.00

 eigenvalues of (default mixing * dielectric matrix)
  average eigenvalue GAMMA=   0.6481
  1.3049  1.3049  0.9766  0.6668  0.6668  0.7852  0.7852  0.4699  0.4699  0.1529
  0.1110  0.0828

 Free energy of the ion-electron system (eV)
  ---------------------------------------------------
  alpha Z        PSCENC =       284.21351034
  Ewald energy   TEWEN  =    101749.30852599
  -Hartree energ DENC   =   -126044.00909494
  -exchange      EXHF   =         0.00000000
  -V(xc)+E(xc)   XCENC  =       514.73279541
  PAW double counting   =     28054.69297886   -29747.60205862
  entropy T*S    EENTRO =        -0.04811342
  eigenvalues    EBANDS =     -1041.65453322
  atomic energy  EATOM  =     26027.44749122
  Solvation contrib.  Ediel  =         0.00000000
  ---------------------------------------------------
  free energy    TOTEN  =      -202.91849838 eV

  energy without entropy =     -202.87038496  energy(sigma->0) =     -202.90647002


--------------------------------------------------------------------------------------------------------




----------------------------------------- Iteration    1(  18)  ---------------------------------------


    POTLOK:  cpu time    0.40: real time    0.40
    SETDIJ:  cpu time    0.05: real time    0.05
     EDDAV:  cpu time   27.70: real time   27.70
       DOS:  cpu time    0.00: real time    0.00
    CHARGE:  cpu time    1.15: real time    1.15
    MIXING:  cpu time    0.02: real time    0.02
    --------------------------------------------
      LOOP:  cpu time   29.32: real time   29.37

 eigenvalue-minimisations  :  5224
 total energy-change (2. order) : 0.1762331E+00  (-0.6317050E-02)
 number of electron     288.0000969 magnetization      53.3235846
 augmentation part      164.6410065 magnetization      45.9012078

 Broyden mixing:
  rms(total) = 0.49221E+00    rms(broyden)= 0.49219E+00
  rms(prec ) = 0.50801E+00
  weight for this iteration     100.00

 eigenvalues of (default mixing * dielectric matrix)
  average eigenvalue GAMMA=   0.7530
  1.9122  1.9122  0.9885  0.9885  0.7188  0.7188  0.8036  0.4863  0.4863  0.4276
  0.1529  0.1110  0.0828

 Free energy of the ion-electron system (eV)
  ---------------------------------------------------
  alpha Z        PSCENC =       284.21351034
  Ewald energy   TEWEN  =    101749.30852599
  -Hartree energ DENC   =   -126058.37229855
  -exchange      EXHF   =         0.00000000
  -V(xc)+E(xc)   XCENC  =       515.62023638
  PAW double counting   =     28031.08048952   -29725.99061901
  entropy T*S    EENTRO =        -0.04634177
  eigenvalues    EBANDS =     -1026.00325942
  atomic energy  EATOM  =     26027.44749122
  Solvation contrib.  Ediel  =         0.00000000
  ---------------------------------------------------
  free energy    TOTEN  =      -202.74226531 eV

  energy without entropy =     -202.69592354  energy(sigma->0) =     -202.73067987


--------------------------------------------------------------------------------------------------------




----------------------------------------- Iteration    1(  19)  ---------------------------------------


    POTLOK:  cpu time    0.42: real time    0.42
    SETDIJ:  cpu time    0.04: real time    0.04
     EDDAV:  cpu time   18.90: real time   18.90
       DOS:  cpu time    0.00: real time    0.00
    CHARGE:  cpu time    1.22: real time    1.21
    MIXING:  cpu time    0.02: real time    0.02
    --------------------------------------------
      LOOP:  cpu time   20.60: real time   20.65

 eigenvalue-minimisations  :  3256
 total energy-change (2. order) : 0.3491179E+00  (-0.3608644E-01)
 number of electron     288.0000968 magnetization      53.8216859
 augmentation part      164.6887280 magnetization      46.6309915

 Broyden mixing:
  rms(total) = 0.39930E+00    rms(broyden)= 0.39929E+00
  rms(prec ) = 0.42143E+00
  weight for this iteration     100.00

 eigenvalues of (default mixing * dielectric matrix)
  average eigenvalue GAMMA=   0.7702
  2.1000  2.1000  0.9938  0.9938  0.6616  0.6616  0.7089  0.7089  0.5364  0.5364
  0.4356  0.1529  0.1110  0.0828

 Free energy of the ion-electron system (eV)
  ---------------------------------------------------
  alpha Z        PSCENC =       284.21351034
  Ewald energy   TEWEN  =    101749.30852599
  -Hartree energ DENC   =   -126070.72562060
  -exchange      EXHF   =         0.00000000
  -V(xc)+E(xc)   XCENC  =       516.38801666
  PAW double counting   =     28013.32309241   -29709.44449398
  entropy T*S    EENTRO =        -0.04422150
  eigenvalues    EBANDS =     -1012.85944798
  atomic energy  EATOM  =     26027.44749122
  Solvation contrib.  Ediel  =         0.00000000
  ---------------------------------------------------
  free energy    TOTEN  =      -202.39314745 eV

  energy without entropy =     -202.34892594  energy(sigma->0) =     -202.38209207


--------------------------------------------------------------------------------------------------------




----------------------------------------- Iteration    1(  20)  ---------------------------------------


    POTLOK:  cpu time    0.42: real time    0.42
    SETDIJ:  cpu time    0.04: real time    0.04
     EDDAV:  cpu time   20.47: real time   20.47
       DOS:  cpu time    0.00: real time    0.00
    CHARGE:  cpu time    1.14: real time    1.14
    MIXING:  cpu time    0.02: real time    0.02
    --------------------------------------------
      LOOP:  cpu time   22.09: real time   22.15

 eigenvalue-minimisations  :  3544
 total energy-change (2. order) : 0.3935292E+00  (-0.2657762E-01)
 number of electron     288.0000966 magnetization      54.0755140
 augmentation part      164.7598499 magnetization      47.0934390

 Broyden mixing:
  rms(total) = 0.21622E+00    rms(broyden)= 0.21620E+00
  rms(prec ) = 0.21938E+00
  weight for this iteration     100.00

 eigenvalues of (default mixing * dielectric matrix)
  average eigenvalue GAMMA=   0.7968
  2.3072  2.3072  0.9581  0.9581  0.7965  0.6856  0.6856  0.7199  0.7199  0.5144
  0.5144  0.4389  0.1529  0.1110  0.0828

 Free energy of the ion-electron system (eV)
  ---------------------------------------------------
  alpha Z        PSCENC =       284.21351034
  Ewald energy   TEWEN  =    101749.30852599
  -Hartree energ DENC   =   -126086.85887885
  -exchange      EXHF   =         0.00000000
  -V(xc)+E(xc)   XCENC  =       517.05321136
  PAW double counting   =     28000.07635215   -29697.27772077
  entropy T*S    EENTRO =        -0.03725886
  eigenvalues    EBANDS =      -995.92485081
  atomic energy  EATOM  =     26027.44749122
  Solvation contrib.  Ediel  =         0.00000000
  ---------------------------------------------------
  free energy    TOTEN  =      -201.99961823 eV

  energy without entropy =     -201.96235937  energy(sigma->0) =     -201.99030352


--------------------------------------------------------------------------------------------------------




----------------------------------------- Iteration    1(  21)  ---------------------------------------


    POTLOK:  cpu time    0.40: real time    0.40
    SETDIJ:  cpu time    0.04: real time    0.04
     EDDAV:  cpu time   21.45: real time   21.46
       DOS:  cpu time    0.00: real time    0.00
    CHARGE:  cpu time    1.17: real time    1.17
    MIXING:  cpu time    0.02: real time    0.02
    --------------------------------------------
      LOOP:  cpu time   23.08: real time   23.12

 eigenvalue-minimisations  :  3792
 total energy-change (2. order) : 0.4266266E-01  (-0.7204840E-02)
 number of electron     288.0000967 magnetization      54.2625230
 augmentation part      164.7637101 magnetization      47.3259523

 Broyden mixing:
  rms(total) = 0.18267E+00    rms(broyden)= 0.18266E+00
  rms(prec ) = 0.18780E+00
  weight for this iteration     100.00

 eigenvalues of (default mixing * dielectric matrix)
  average eigenvalue GAMMA=   0.8218
  2.2779  2.2779  1.0140  1.0140  1.1002  0.8343  0.8343  0.6967  0.6967  0.5909
  0.5135  0.5135  0.4377  0.1529  0.1110  0.0828

 Free energy of the ion-electron system (eV)
  ---------------------------------------------------
  alpha Z        PSCENC =       284.21351034
  Ewald energy   TEWEN  =    101749.30852599
  -Hartree energ DENC   =   -126095.65936253
  -exchange      EXHF   =         0.00000000
  -V(xc)+E(xc)   XCENC  =       517.29601353
  PAW double counting   =     27972.58040094   -29669.68476769
  entropy T*S    EENTRO =        -0.03930049
  eigenvalues    EBANDS =      -987.41946688
  atomic energy  EATOM  =     26027.44749122
  Solvation contrib.  Ediel  =         0.00000000
  ---------------------------------------------------
  free energy    TOTEN  =      -201.95695557 eV

  energy without entropy =     -201.91765509  energy(sigma->0) =     -201.94713045


--------------------------------------------------------------------------------------------------------




----------------------------------------- Iteration    1(  22)  ---------------------------------------


    POTLOK:  cpu time    0.40: real time    0.40
    SETDIJ:  cpu time    0.04: real time    0.04
     EDDAV:  cpu time   19.88: real time   19.89
       DOS:  cpu time    0.00: real time    0.00
    CHARGE:  cpu time    1.19: real time    1.19
    MIXING:  cpu time    0.02: real time    0.02
    --------------------------------------------
      LOOP:  cpu time   21.55: real time   21.59

 eigenvalue-minimisations  :  3440
 total energy-change (2. order) :-0.1506146E+00  (-0.2544727E-02)
 number of electron     288.0000969 magnetization      54.5959215
 augmentation part      164.8094843 magnetization      47.5631346

 Broyden mixing:
  rms(total) = 0.17640E+00    rms(broyden)= 0.17640E+00
  rms(prec ) = 0.18064E+00
  weight for this iteration     100.00

 eigenvalues of (default mixing * dielectric matrix)
  average eigenvalue GAMMA=   0.8459
  2.4435  2.4435  1.3168  1.0905  1.0905  0.8529  0.8529  0.6841  0.6841  0.1529
  0.0828  0.1110  0.5256  0.5256  0.4409  0.5416  0.5416

 Free energy of the ion-electron system (eV)
  ---------------------------------------------------
  alpha Z        PSCENC =       284.21351034
  Ewald energy   TEWEN  =    101749.30852599
  -Hartree energ DENC   =   -126104.02743178
  -exchange      EXHF   =         0.00000000
  -V(xc)+E(xc)   XCENC  =       517.03207481
  PAW double counting   =     27949.81842825   -29646.33218543
  entropy T*S    EENTRO =        -0.03970341
  eigenvalues    EBANDS =      -979.52828018
  atomic energy  EATOM  =     26027.44749122
  Solvation contrib.  Ediel  =         0.00000000
  ---------------------------------------------------
  free energy    TOTEN  =      -202.10757019 eV

  energy without entropy =     -202.06786678  energy(sigma->0) =     -202.09764433


--------------------------------------------------------------------------------------------------------




----------------------------------------- Iteration    1(  23)  ---------------------------------------


    POTLOK:  cpu time    0.44: real time    0.43
    SETDIJ:  cpu time    0.04: real time    0.04
     EDDAV:  cpu time   21.26: real time   21.26
       DOS:  cpu time    0.00: real time    0.00
    CHARGE:  cpu time    1.20: real time    1.20
    MIXING:  cpu time    0.02: real time    0.02
    --------------------------------------------
      LOOP:  cpu time   22.96: real time   22.99

 eigenvalue-minimisations  :  3752
 total energy-change (2. order) :-0.6865127E-01  (-0.1808567E-02)
 number of electron     288.0000971 magnetization      55.1427450
 augmentation part      164.8370956 magnetization      48.0751735

 Broyden mixing:
  rms(total) = 0.15590E+00    rms(broyden)= 0.15589E+00
  rms(prec ) = 0.16558E+00
  weight for this iteration     100.00

 eigenvalues of (default mixing * dielectric matrix)
  average eigenvalue GAMMA=   0.9427
  3.2591  3.2591  1.1275  1.1275  0.9531  0.9531  0.9403  0.9403  0.6777  0.6777
  0.6183  0.6183  0.5160  0.5160  0.4379  0.1529  0.0828  0.1110

 Free energy of the ion-electron system (eV)
  ---------------------------------------------------
  alpha Z        PSCENC =       284.21351034
  Ewald energy   TEWEN  =    101749.30852599
  -Hartree energ DENC   =   -126114.72710560
  -exchange      EXHF   =         0.00000000
  -V(xc)+E(xc)   XCENC  =       517.14788680
  PAW double counting   =     27923.05177683   -29619.18489892
  entropy T*S    EENTRO =        -0.04113092
  eigenvalues    EBANDS =      -969.39227719
  atomic energy  EATOM  =     26027.44749122
  Solvation contrib.  Ediel  =         0.00000000
  ---------------------------------------------------
  free energy    TOTEN  =      -202.17622145 eV

  energy without entropy =     -202.13509053  energy(sigma->0) =     -202.16593872


--------------------------------------------------------------------------------------------------------




----------------------------------------- Iteration    1(  24)  ---------------------------------------


    POTLOK:  cpu time    0.47: real time    0.47
    SETDIJ:  cpu time    0.04: real time    0.04
     EDDAV:  cpu time   19.10: real time   19.11
       DOS:  cpu time    0.00: real time    0.00
    CHARGE:  cpu time    1.10: real time    1.09
    MIXING:  cpu time    0.02: real time    0.02
    --------------------------------------------
      LOOP:  cpu time   20.73: real time   20.88

 eigenvalue-minimisations  :  3328
 total energy-change (2. order) :-0.2007003E+00  (-0.2591258E-02)
 number of electron     288.0000971 magnetization      55.5020441
 augmentation part      164.7925094 magnetization      48.2636970

 Broyden mixing:
  rms(total) = 0.10673E+00    rms(broyden)= 0.10672E+00
  rms(prec ) = 0.10989E+00
  weight for this iteration     100.00

 eigenvalues of (default mixing * dielectric matrix)
  average eigenvalue GAMMA=   1.0087
  3.7113  3.7113  1.4264  1.1866  1.1866  1.0599  1.0599  0.6839  0.6839  0.0828
  0.1110  0.1529  0.7207  0.7207  0.5188  0.5188  0.4381  0.5962  0.5962

 Free energy of the ion-electron system (eV)
  ---------------------------------------------------
  alpha Z        PSCENC =       284.21351034
  Ewald energy   TEWEN  =    101749.30852599
  -Hartree energ DENC   =   -126129.21904877
  -exchange      EXHF   =         0.00000000
  -V(xc)+E(xc)   XCENC  =       517.18613513
  PAW double counting   =     27878.71450730   -29574.61162108
  entropy T*S    EENTRO =        -0.04628186
  eigenvalues    EBANDS =      -955.37014002
  atomic energy  EATOM  =     26027.44749122
  Solvation contrib.  Ediel  =         0.00000000
  ---------------------------------------------------
  free energy    TOTEN  =      -202.37692176 eV

  energy without entropy =     -202.33063989  energy(sigma->0) =     -202.36535129


--------------------------------------------------------------------------------------------------------




----------------------------------------- Iteration    1(  25)  ---------------------------------------


    POTLOK:  cpu time    0.40: real time    0.40
    SETDIJ:  cpu time    0.04: real time    0.04
     EDDAV:  cpu time   20.60: real time   20.60
       DOS:  cpu time    0.00: real time    0.00
    CHARGE:  cpu time    1.10: real time    1.10
    MIXING:  cpu time    0.03: real time    0.03
    --------------------------------------------
      LOOP:  cpu time   22.17: real time   22.29

 eigenvalue-minimisations  :  3640
 total energy-change (2. order) :-0.2237217E+00  (-0.3480260E-02)
 number of electron     288.0000970 magnetization      55.8520131
 augmentation part      164.8301530 magnetization      48.4914037

 Broyden mixing:
  rms(total) = 0.88689E-01    rms(broyden)= 0.88686E-01
  rms(prec ) = 0.90229E-01
  weight for this iteration     100.00

 eigenvalues of (default mixing * dielectric matrix)
  average eigenvalue GAMMA=   1.0924
  5.6749  3.3354  1.4663  1.3165  1.3165  1.0742  1.0742  0.6869  0.6869  0.7746
  0.7746  0.0828  0.1110  0.1529  0.5175  0.5175  0.4383  0.6275  0.6275  0.5914

 Free energy of the ion-electron system (eV)
  ---------------------------------------------------
  alpha Z        PSCENC =       284.21351034
  Ewald energy   TEWEN  =    101749.30852599
  -Hartree energ DENC   =   -126133.26366392
  -exchange      EXHF   =         0.00000000
  -V(xc)+E(xc)   XCENC  =       517.04371231
  PAW double counting   =     27871.41065191   -29567.01743173
  entropy T*S    EENTRO =        -0.05017992
  eigenvalues    EBANDS =      -951.69325960
  atomic energy  EATOM  =     26027.44749122
  Solvation contrib.  Ediel  =         0.00000000
  ---------------------------------------------------
  free energy    TOTEN  =      -202.60064342 eV

  energy without entropy =     -202.55046350  energy(sigma->0) =     -202.58809844


--------------------------------------------------------------------------------------------------------




----------------------------------------- Iteration    1(  26)  ---------------------------------------


    POTLOK:  cpu time    0.45: real time    0.45
    SETDIJ:  cpu time    0.04: real time    0.04
     EDDAV:  cpu time   18.71: real time   18.71
       DOS:  cpu time    0.00: real time    0.00
    CHARGE:  cpu time    1.16: real time    1.16
    MIXING:  cpu time    0.03: real time    0.03
    --------------------------------------------
      LOOP:  cpu time   20.39: real time   20.46

 eigenvalue-minimisations  :  3216
 total energy-change (2. order) :-0.1868122E+00  (-0.1827646E-02)
 number of electron     288.0000970 magnetization      56.2945992
 augmentation part      164.8185568 magnetization      48.8236172

 Broyden mixing:
  rms(total) = 0.73241E-01    rms(broyden)= 0.73240E-01
  rms(prec ) = 0.77638E-01
  weight for this iteration     100.00

 eigenvalues of (default mixing * dielectric matrix)
  average eigenvalue GAMMA=   1.2281
  8.5378  2.9767  1.7290  1.2889  1.2889  1.0973  1.0973  0.0828  0.1110  0.1529
  0.6856  0.6856  0.7984  0.7984  0.8802  0.8802  0.5186  0.5186  0.4381  0.6117
  0.6117

 Free energy of the ion-electron system (eV)
  ---------------------------------------------------
  alpha Z        PSCENC =       284.21351034
  Ewald energy   TEWEN  =    101749.30852599
  -Hartree energ DENC   =   -126135.96761947
  -exchange      EXHF   =         0.00000000
  -V(xc)+E(xc)   XCENC  =       517.02057556
  PAW double counting   =     27870.64858294   -29566.28025773
  entropy T*S    EENTRO =        -0.05415560
  eigenvalues    EBANDS =      -949.12410886
  atomic energy  EATOM  =     26027.44749122
  Solvation contrib.  Ediel  =         0.00000000
  ---------------------------------------------------
  free energy    TOTEN  =      -202.78745562 eV

  energy without entropy =     -202.73330002  energy(sigma->0) =     -202.77391672


--------------------------------------------------------------------------------------------------------




----------------------------------------- Iteration    1(  27)  ---------------------------------------


    POTLOK:  cpu time    0.43: real time    0.43
    SETDIJ:  cpu time    0.04: real time    0.04
     EDDAV:  cpu time   19.73: real time   19.73
       DOS:  cpu time    0.00: real time    0.00
    CHARGE:  cpu time    1.09: real time    1.09
    MIXING:  cpu time    0.03: real time    0.03
    --------------------------------------------
      LOOP:  cpu time   21.32: real time   21.44

 eigenvalue-minimisations  :  3488
 total energy-change (2. order) :-0.1643485E+00  (-0.2240273E-02)
 number of electron     288.0000971 magnetization      56.5379547
 augmentation part      164.8187436 magnetization      48.9542248

 Broyden mixing:
  rms(total) = 0.45131E-01    rms(broyden)= 0.45126E-01
  rms(prec ) = 0.46860E-01
  weight for this iteration     100.00

 eigenvalues of (default mixing * dielectric matrix)
  average eigenvalue GAMMA=   1.3328
 10.8715  2.9988  1.9375  1.0996  1.0996  1.2134  1.2134  1.1448  1.1448  0.0828
  0.1110  0.1529  0.6849  0.6849  0.7779  0.7779  0.5180  0.5180  0.4382  0.6595
  0.5965  0.5965

 Free energy of the ion-electron system (eV)
  ---------------------------------------------------
  alpha Z        PSCENC =       284.21351034
  Ewald energy   TEWEN  =    101749.30852599
  -Hartree energ DENC   =   -126136.86476771
  -exchange      EXHF   =         0.00000000
  -V(xc)+E(xc)   XCENC  =       517.01726729
[...]
 total augmentation occupancy for first ion, spin component:           2
  2.000   0.248   0.000  -0.000   0.000  -0.913  -0.087   0.000   0.000  -0.000   0.000   0.000  -0.032  -0.000   0.000  -0.009
  0.248   2.011   0.000   0.000  -0.000  -0.083  -0.891  -0.000  -0.000   0.000   0.000  -0.000  -0.017  -0.000  -0.000  -0.023
 -0.000   0.000   1.982  -0.143   0.061  -0.000  -0.000  -0.911   0.040  -0.026   0.012   0.044  -0.000  -0.034   0.007   0.000
  0.000   0.000  -0.143   2.074  -0.088   0.000  -0.000   0.043  -0.915   0.019   0.014   0.022  -0.000  -0.010  -0.041  -0.000
  0.000   0.000   0.061  -0.088   1.976   0.000  -0.000  -0.026   0.019  -0.923   0.007   0.004  -0.000  -0.014   0.009   0.000
 -0.913  -0.083   0.000   0.000   0.000   0.227   0.042  -0.000   0.000  -0.000   0.000   0.000  -0.000   0.000   0.000   0.004
 -0.087  -0.891   0.000  -0.000   0.000   0.042   0.233  -0.000  -0.000  -0.000   0.000   0.000  -0.016  -0.000   0.000   0.014
 -0.000  -0.000  -0.911   0.043  -0.026  -0.000   0.000   0.250  -0.005   0.004   0.017  -0.024  -0.000  -0.008   0.008  -0.000
  0.000  -0.000   0.040  -0.915   0.019   0.000   0.000  -0.005   0.241   0.000   0.007  -0.012   0.000   0.004  -0.009   0.000
  0.000   0.000  -0.026   0.019  -0.923  -0.000   0.000   0.004   0.000   0.241   0.001  -0.003   0.000   0.004  -0.007   0.000
  0.000   0.000   0.012   0.014   0.007  -0.000   0.000   0.017   0.007   0.001  -0.236   0.080  -0.000  -0.040  -0.013   0.000
 -0.000  -0.000   0.044   0.022   0.004   0.000  -0.000  -0.024  -0.012  -0.003   0.080  -0.008   0.000   0.008   0.002   0.000
 -0.032  -0.017  -0.000  -0.000   0.000  -0.000  -0.016   0.000  -0.000  -0.000   0.000   0.000  -0.023  -0.000   0.000   0.003
  0.000   0.000  -0.034  -0.010  -0.014   0.000  -0.000  -0.008   0.004   0.004  -0.040   0.008  -0.000  -0.013   0.001  -0.000
  0.000   0.000   0.007  -0.041   0.009   0.000  -0.000   0.008  -0.009  -0.007  -0.013   0.002   0.000   0.001  -0.020   0.000
 -0.009  -0.023   0.000  -0.000   0.000   0.004   0.014  -0.000   0.000   0.000   0.000  -0.000   0.003   0.000   0.000  -0.000
 -0.000   0.000  -0.028  -0.005  -0.001   0.000  -0.000   0.017   0.003   0.000   0.004  -0.002   0.000   0.003  -0.000   0.000
 -0.000   0.000   0.004  -0.023  -0.005   0.000   0.000  -0.003   0.014   0.003   0.000  -0.000  -0.000  -0.000   0.003   0.000


------------------------ aborting loop because EDIFF is reached ----------------------------------------



 DIPCOR: dipole corrections for dipol
 direction  3 min pos   124,
 dipolmoment           0.000000      0.000000      0.022555 electrons x Angstroem
 Tr[quadrupol]     -3537.320520

 energy correction for charged system         0.000000 eV
 dipol+quadrupol energy correction            0.000030 eV
 added-field ion interaction          0.000000 eV  (added to PSCEN)

 
  *************** adding dipol energy to TOTEN NOW **************** 
    CHARGE:  cpu time    1.12: real time    1.12
    FORLOC:  cpu time    0.03: real time    0.03
    FORNL :  cpu time    3.16: real time    3.17
    STRESS:  cpu time    9.53: real time    9.53
    FORCOR:  cpu time    0.47: real time    0.47
    FORHAR:  cpu time    0.07: real time    0.07
    MIXING:  cpu time    0.06: real time    0.06
    OFIELD:  cpu time    0.00: real time    0.00

  Hirshfeld-DOM and Hirshfeld charges and relative Volumes:   
            ion         q(e)           q(e)           rel_vol 
   -----------------------------------------------------------
      1     Co          0.036          0.036          1.080
      2     Co          0.038          0.036          1.078
      3     Co          0.036          0.036          1.080
      4     Co          0.038          0.036          1.078
      5     Co          0.036          0.036          1.080
      6     Co          0.038          0.036          1.078
      7     Co          0.036          0.036          1.080
      8     Co          0.038          0.036          1.078
      9     Co         -0.033         -0.033          0.937
     10     Co         -0.030         -0.033          0.930
     11     Co         -0.033         -0.033          0.937
     12     Co         -0.030         -0.033          0.930
     13     Co         -0.033         -0.033          0.937
     14     Co         -0.030         -0.033          0.930
     15     Co         -0.033         -0.033          0.937
     16     Co         -0.030         -0.033          0.930
     17     Co         -0.042         -0.036          0.943
     18     Co         -0.040         -0.036          0.937
     19     Co         -0.042         -0.036          0.943
     20     Co         -0.040         -0.036          0.937
     21     Co         -0.042         -0.036          0.943
     22     Co         -0.040         -0.036          0.937
     23     Co         -0.042         -0.036          0.943
     24     Co         -0.040         -0.036          0.937
     25     Co          0.034          0.033          1.055
     26     Co          0.037          0.033          1.051
     27     Co          0.034          0.033          1.055
     28     Co          0.037          0.033          1.051
     29     Co          0.034          0.033          1.055
     30     Co          0.037          0.033          1.051
     31     Co          0.034          0.033          1.055
     32     Co          0.037          0.033          1.051

  dDsC method for vdW energy calculation
  ---------------------------------------------------------------------------------------------

  Parameters of vdW forcefield:
            C6dDsC            XDM            ALPHAts        RELVOL
            (au)              (au)            (au)                
   ---------------------------------------------------------------
   Co        541.305         11.977         54.010          1.080
   Co        540.854         11.988         53.916          1.078
   Co        541.305         11.977         54.010          1.080
   Co        540.854         11.988         53.916          1.078
   Co        541.305         11.977         54.010          1.080
   Co        540.856         11.988         53.916          1.078
   Co        541.306         11.977         54.010          1.080
   Co        540.856         11.988         53.916          1.078
   Co        325.759          8.308         46.860          0.937
   Co        322.719          8.291         46.515          0.930
   Co        325.759          8.308         46.860          0.937
   Co        322.719          8.291         46.515          0.930
   Co        325.758          8.308         46.860          0.937
   Co        322.719          8.291         46.515          0.930
   Co        325.758          8.308         46.860          0.937
   Co        322.719          8.291         46.515          0.930
   Co        331.133          8.396         47.134          0.943
   Co        328.883          8.386         46.868          0.937
   Co        331.133          8.396         47.134          0.943
   Co        328.883          8.386         46.868          0.937
   Co        331.133          8.396         47.134          0.943
   Co        328.883          8.386         46.868          0.937
   Co        331.133          8.396         47.134          0.943
   Co        328.883          8.386         46.868          0.937
   Co        511.124         11.581         52.743          1.055
   Co        509.162         11.575         52.569          1.051
   Co        511.125         11.581         52.743          1.055
   Co        509.162         11.575         52.569          1.051
   Co        511.125         11.581         52.743          1.055
   Co        509.162         11.575         52.569          1.051
   Co        511.125         11.581         52.743          1.055
   Co        509.162         11.575         52.569          1.051

  IVDW =   4
  VDW_RADIUS =    50.000 A
  VDW_S6 aka ATT0 =    13.960
  VDW_SR aka BTT0 =     1.320
  LVDW_ONECELL = F F F

  Number of pair interactions contributing to vdW energy:  182328
  Edisp (eV):   -6.32290
    FORVDW:  cpu time    9.21: real time   10.40

  FORCE on cell =-STRESS in cart. coord.  units (eV):
  Direction    XX          YY          ZZ          XY          YZ          ZX
  --------------------------------------------------------------------------------------
  Alpha Z   284.21351   284.21351   284.21351
  Ewald  117100.30291117701.01065************     0.00045     0.00000     0.00066
  Hartree122758.38041123127.84802************     0.00015     0.00000     0.00034
  E(xc)   -1472.34638 -1472.11807 -1475.50788    -0.00000     0.00000     0.00000
  Local  ************************246795.73023    -0.00055     0.00000    -0.00100
  n-local  -180.47281  -173.04323  -198.22619     1.14930     0.00000    -0.00810
  augment  4988.81941  4985.78715  4987.18571    -0.00001    -0.00000     0.00007
  Kinetic  2403.92355  2396.88741  2428.59158     0.37077    -0.00000     0.00012
  Fock        0.00000     0.00000     0.00000     0.00000     0.00000     0.00000
  vdW        -8.01894    -7.98016    -3.26271     0.00000     0.00000     0.00004
  -------------------------------------------------------------------------------------
  Total     -23.86214   -22.38948    -6.97000     0.00000     0.00000     0.00000
  in kB     -25.05143   -23.50536    -7.31738     0.00000     0.00000     0.00000
  external pressure =      -18.62 kB  Pullay stress =        0.00 kB


 VOLUME and BASIS-vectors are now :
 -----------------------------------------------------------------------------
  energy-cutoff  :      400.00
  volume of cell :     1526.12
      direct lattice vectors                 reciprocal lattice vectors
     8.559999890  0.000000000  0.000000000     0.116822431  0.000000000  0.000000000
     0.000000000  8.019998610  0.000000000     0.000000000  0.124688301  0.000000000
     0.000000000  0.000000000 22.230000000     0.000000000  0.000000000  0.044984256

  length of vectors
     8.559999890  8.019998610 22.230000000     0.116822431  0.124688301  0.044984256


 FORCES acting on ions
    electron-ion (+dipol)            ewald-force                    non-local-force                 convergence-correction
 -----------------------------------------------------------------------------------------------
   0.476E+02 -.738E-03 0.184E+04   -.462E+02 0.128E-02 -.183E+04   -.117E+01 0.000E+00 -.419E+01   -.102E-03 0.324E-07 0.396E-03
   -.476E+02 -.162E-02 0.184E+04   0.462E+02 0.281E-02 -.183E+04   0.117E+01 -.108E-18 -.419E+01   0.102E-03 0.524E-07 0.396E-03
   0.476E+02 0.102E-02 0.184E+04   -.462E+02 -.179E-02 -.183E+04   -.117E+01 0.000E+00 -.419E+01   -.102E-03 -.318E-07 0.396E-03
   -.476E+02 0.132E-02 0.184E+04   0.462E+02 -.230E-02 -.183E+04   0.117E+01 -.108E-18 -.419E+01   0.102E-03 -.546E-07 0.396E-03
   0.476E+02 -.738E-03 0.184E+04   -.462E+02 0.128E-02 -.183E+04   -.117E+01 0.000E+00 -.419E+01   -.102E-03 0.324E-07 0.396E-03
   -.476E+02 -.162E-02 0.184E+04   0.462E+02 0.281E-02 -.183E+04   0.117E+01 0.000E+00 -.419E+01   0.102E-03 0.524E-07 0.397E-03
   0.476E+02 0.102E-02 0.184E+04   -.462E+02 -.179E-02 -.183E+04   -.117E+01 0.000E+00 -.419E+01   -.102E-03 -.318E-07 0.397E-03
   -.476E+02 0.132E-02 0.184E+04   0.462E+02 -.230E-02 -.183E+04   0.117E+01 0.000E+00 -.419E+01   0.102E-03 -.546E-07 0.396E-03
   -.514E+01 -.108E-02 0.707E+03   0.533E+01 0.167E-02 -.709E+03   -.268E+00 -.136E-19 0.800E+00   0.110E-03 0.378E-07 0.578E-03
   0.514E+01 -.233E-02 0.707E+03   -.532E+01 0.375E-02 -.709E+03   0.268E+00 0.000E+00 0.800E+00   -.110E-03 0.608E-07 0.578E-03
   -.514E+01 0.137E-02 0.707E+03   0.533E+01 -.239E-02 -.709E+03   -.268E+00 -.136E-19 0.800E+00   0.110E-03 -.362E-07 0.578E-03
   0.514E+01 0.175E-02 0.707E+03   -.532E+01 -.302E-02 -.709E+03   0.268E+00 0.000E+00 0.800E+00   -.110E-03 -.625E-07 0.578E-03
   -.514E+01 -.108E-02 0.707E+03   0.532E+01 0.167E-02 -.709E+03   -.268E+00 0.000E+00 0.800E+00   0.110E-03 0.378E-07 0.578E-03
   0.514E+01 -.233E-02 0.707E+03   -.533E+01 0.375E-02 -.709E+03   0.268E+00 0.000E+00 0.800E+00   -.110E-03 0.608E-07 0.578E-03
   -.514E+01 0.137E-02 0.707E+03   0.532E+01 -.239E-02 -.709E+03   -.268E+00 0.000E+00 0.800E+00   0.110E-03 -.362E-07 0.578E-03
   0.514E+01 0.175E-02 0.707E+03   -.533E+01 -.302E-02 -.709E+03   0.268E+00 0.000E+00 0.800E+00   -.110E-03 -.625E-07 0.578E-03
   -.240E+02 -.112E-02 -.722E+03   0.244E+02 0.169E-02 0.723E+03   -.441E+00 0.000E+00 -.786E+00   -.607E-04 0.374E-07 0.361E-03
   0.240E+02 -.241E-02 -.722E+03   -.244E+02 0.381E-02 0.723E+03   0.441E+00 0.000E+00 -.786E+00   0.607E-04 0.599E-07 0.361E-03
   -.240E+02 0.139E-02 -.722E+03   0.244E+02 -.244E-02 0.723E+03   -.441E+00 0.000E+00 -.786E+00   -.607E-04 -.358E-07 0.361E-03
   0.240E+02 0.178E-02 -.722E+03   -.244E+02 -.307E-02 0.723E+03   0.441E+00 0.000E+00 -.786E+00   0.607E-04 -.621E-07 0.361E-03
   -.240E+02 -.112E-02 -.722E+03   0.244E+02 0.169E-02 0.723E+03   -.441E+00 0.000E+00 -.786E+00   -.606E-04 0.374E-07 0.361E-03
   0.240E+02 -.241E-02 -.722E+03   -.244E+02 0.381E-02 0.723E+03   0.441E+00 -.434E-18 -.786E+00   0.606E-04 0.599E-07 0.361E-03
   -.240E+02 0.139E-02 -.722E+03   0.244E+02 -.244E-02 0.723E+03   -.441E+00 0.000E+00 -.786E+00   -.606E-04 -.358E-07 0.361E-03
   0.240E+02 0.178E-02 -.722E+03   -.244E+02 -.307E-02 0.723E+03   0.441E+00 -.434E-18 -.786E+00   0.606E-04 -.621E-07 0.361E-03
   0.580E+02 -.821E-03 -.182E+04   -.570E+02 0.136E-02 0.182E+04   -.103E+01 0.000E+00 0.382E+01   0.291E-04 0.332E-07 0.208E-03
   -.580E+02 -.179E-02 -.182E+04   0.570E+02 0.302E-02 0.182E+04   0.103E+01 0.000E+00 0.382E+01   -.290E-04 0.536E-07 0.208E-03
   0.580E+02 0.110E-02 -.182E+04   -.570E+02 -.192E-02 0.182E+04   -.103E+01 0.000E+00 0.382E+01   0.291E-04 -.319E-07 0.208E-03
   -.580E+02 0.141E-02 -.182E+04   0.570E+02 -.245E-02 0.182E+04   0.103E+01 0.000E+00 0.382E+01   -.290E-04 -.549E-07 0.208E-03
   0.580E+02 -.821E-03 -.182E+04   -.570E+02 0.136E-02 0.182E+04   -.103E+01 0.000E+00 0.382E+01   0.290E-04 0.332E-07 0.208E-03
   -.580E+02 -.179E-02 -.182E+04   0.570E+02 0.302E-02 0.182E+04   0.103E+01 0.000E+00 0.382E+01   -.291E-04 0.536E-07 0.208E-03
   0.580E+02 0.110E-02 -.182E+04   -.570E+02 -.192E-02 0.182E+04   -.103E+01 0.000E+00 0.382E+01   0.290E-04 -.319E-07 0.208E-03
   -.580E+02 0.141E-02 -.182E+04   0.570E+02 -.245E-02 0.182E+04   0.103E+01 0.000E+00 0.382E+01   -.291E-04 -.549E-07 0.208E-03
 -----------------------------------------------------------------------------------------------
   -.786E-03 -.155E-02 0.325E+01   -.355E-13 0.951E-13 0.125E-10   0.444E-15 -.111E-17 -.278E+01   0.440E-08 -.480E-08 0.124E-01
 
 
 POSITION                                       TOTAL-FORCE (eV/Angst)
 -----------------------------------------------------------------------------------
      4.27999      4.01000      0.00000         0.235354      0.000000      0.501827
      5.70701      6.01499      0.00000        -0.235354      0.000000      0.501827
      4.27999      0.00000      0.00000         0.235354      0.000000      0.501827
      5.70701      2.00500      0.00000        -0.235354      0.000000      0.501827
      0.00000      4.01000      0.00000         0.235354      0.000000      0.501827
      1.42700      6.01499      0.00000        -0.235354      0.000000      0.501827
      0.00000      0.00000      0.00000         0.235354      0.000000      0.501827
      1.42700      2.00500      0.00000        -0.235354      0.000000      0.501827
      6.42000      4.01000      1.23500        -0.083189      0.000000     -0.489521
      7.84699      6.01499      1.23500         0.083189      0.000000     -0.489521
      6.42000      0.00000      1.23500        -0.083189      0.000000     -0.489521
      7.84699      2.00500      1.23500         0.083189      0.000000     -0.489521
      2.14000      4.01000      1.23500        -0.083189      0.000000     -0.489521
      3.56700      6.01499      1.23500         0.083189      0.000000     -0.489521
      2.14000      0.00000      1.23500        -0.083189      0.000000     -0.489521
      3.56700      2.00500      1.23500         0.083189      0.000000     -0.489521
      4.28960      4.01000      2.50914         0.003601      0.000000     -0.010824
      5.69740      6.01499      2.50914        -0.003601      0.000000     -0.010824
      4.28960      0.00000      2.50914         0.003601      0.000000     -0.010824
      5.69740      2.00500      2.50914        -0.003601      0.000000     -0.010824
      0.00960      4.01000      2.50914         0.003601      0.000000     -0.010824
      1.41740      6.01499      2.50914        -0.003601      0.000000     -0.010824
      0.00960      0.00000      2.50914         0.003601      0.000000     -0.010824
      1.41740      2.00500      2.50914        -0.003601      0.000000     -0.010824
      6.47048      4.01000      3.62824        -0.000031      0.000000     -0.001482
      7.79651      6.01499      3.62824         0.000031      0.000000     -0.001482
      6.47048      0.00000      3.62824        -0.000031      0.000000     -0.001482
      7.79651      2.00500      3.62824         0.000031      0.000000     -0.001482
      2.19049      4.01000      3.62824        -0.000031      0.000000     -0.001482
      3.51652      6.01499      3.62824         0.000031     -0.000000     -0.001482
      2.19049      0.00000      3.62824        -0.000031      0.000000     -0.001482
      3.51652      2.00500      3.62824         0.000031      0.000000     -0.001482
 -----------------------------------------------------------------------------------
    total drift:                               -0.000786     -0.001553      0.486488


--------------------------------------------------------------------------------------------------------



  FREE ENERGIE OF THE ION-ELECTRON SYSTEM (eV)
  ---------------------------------------------------
  free  energy   TOTEN  =      -209.40761578 eV

  energy  without entropy=     -209.34668202  energy(sigma->0) =     -209.39238234
 


--------------------------------------------------------------------------------------------------------


    POTLOK:  cpu time    0.54: real time    0.56


--------------------------------------------------------------------------------------------------------


 stress matrix after NEB project (eV)
    -23.86214      0.00000      0.00000
      0.00000    -22.38948      0.00000
      0.00000      0.00000     -6.97000
  FORCES: max atom, RMS     0.011407    0.005752
  FORCE total and by dimension    0.032535    0.010824
  Stress total and by dimension   33.455510   23.862139


--------------------------------------------------------------------------------------------------------


  
 reached required accuracy - stopping structural energy minimisation
     LOOP+:  cpu time  987.01: real time  994.61
    4ORBIT:  cpu time    0.00: real time    0.00

 total amount of memory used by VASP on root node   165185. kBytes
========================================================================

   base      :      30000. kBytes
   nonlr-proj:       6802. kBytes
   fftplans  :       7367. kBytes
   grid      :      29397. kBytes
   one-center:        995. kBytes
   wavefun   :      90624. kBytes
 
  
  
 General timing and accounting informations for this job:
 ========================================================
  
                  Total CPU time used (sec):      992.176
                            User time (sec):      990.892
                          System time (sec):        1.284
                         Elapsed time (sec):     1001.697
  
                   Maximum memory used (kb):      205736.
                   Average memory used (kb):           0.
  
                          Minor page faults:       258392
                          Major page faults:           26
                 Voluntary context switches:        21774
