 vasp.5.3.5 31Mar14 (build Jan 31 2018 16:04:57) complex                        
  
 executed on             LinuxIFC date 2018.12.29  18:13:53
 running on    8 total cores
 distrk:  each k-point on    8 cores,    1 groups
 distr:  one band on NCORES_PER_BAND=   1 cores,    8 groups


--------------------------------------------------------------------------------------------------------


 INCAR:
 POTCAR:    PAW_PBE Co 02Aug2007                  
 POTCAR:    PAW_PBE C 08Apr2002                   
 POTCAR:    PAW_PBE O 08Apr2002                   
 POTCAR:    PAW_PBE H 15Jun2001                   

 ----------------------------------------------------------------------------- 
|                                                                             |
|           W    W    AA    RRRRR   N    N  II  N    N   GGGG   !!!           |
|           W    W   A  A   R    R  NN   N  II  NN   N  G    G  !!!           |
|           W    W  A    A  R    R  N N  N  II  N N  N  G       !!!           |
|           W WW W  AAAAAA  RRRRR   N  N N  II  N  N N  G  GGG   !            |
|           WW  WW  A    A  R   R   N   NN  II  N   NN  G    G                |
|           W    W  A    A  R    R  N    N  II  N    N   GGGG   !!!           |
|                                                                             |
|      For optimal performance we recommend to set                            |
|        NCORE= 4 - approx SQRT( number of cores)                             |
|      NCORE specifies how many cores store one orbital (NPAR=cpu/NCORE).     |
|      This setting can  greatly improve the performance of VASP for DFT.     |
|      The default, NPAR=number of cores might be grossly inefficient         |
|      on modern multi-core architectures or massively parallel machines.     |
|      Do your own testing !!!!                                               |
|      Unfortunately you need to use the default for GW and RPA calculations. |
|      (for HF NCORE is supported but not extensively tested yet)             |
|                                                                             |
 ----------------------------------------------------------------------------- 

 POTCAR:    PAW_PBE Co 02Aug2007                  
   VRHFIN =Co: d8 s1                                                            
   LEXCH  = PE                                                                  
   EATOM  =   813.3670 eV,   59.7808 Ry                                         
                                                                                
   TITEL  = PAW_PBE Co 02Aug2007                                                
   LULTRA =        F    use ultrasoft PP ?                                      
   IUNSCR =        1    unscreen: 0-lin 1-nonlin 2-no                           
   RPACOR =    2.000    partial core radius                                     
   POMASS =   58.933; ZVAL   =    9.000    mass and valenz                      
   RCORE  =    2.300    outmost cutoff radius                                   
   RWIGS  =    2.460; RWIGS  =    1.302    wigner-seitz radius (au A)           
   ENMAX  =  267.968; ENMIN  =  200.976 eV                                      
   RCLOC  =    1.203    cutoff for local pot                                    
   LCOR   =        T    correct aug charges                                     
   LPAW   =        T    paw PP                                                  
   EAUG   =  477.818                                                            
   DEXC   =    0.000                                                            
   RMAX   =    2.360    core radius for proj-oper                               
   RAUG   =    1.300    factor for augmentation sphere                          
   RDEP   =    2.393    radius for radial grids                                 
   RDEPT  =    1.864    core radius for aug-charge                              
                                                                                
   Atomic configuration                                                         
    9 entries                                                                   
     n  l   j            E        occ.                                          
     1  0  0.50     -7587.6674   2.0000                                         
     2  0  0.50      -893.6084   2.0000                                         
     2  1  1.50      -764.5805   6.0000                                         
     3  0  0.50       -97.5973   2.0000                                         
     3  1  1.50       -60.9648   6.0000                                         
     3  2  2.50        -4.2382   8.0000                                         
     4  0  0.50        -4.3746   1.0000                                         
     4  1  1.50        -4.0817   0.0000                                         
     4  3  2.50        -1.3606   0.0000                                         
   Description                                                                  
     l       E           TYP  RCUT    TYP  RCUT                                 
     2     -4.2382362     23  2.300                                             
     2     -5.5988188     23  2.300                                             
     0     -4.3745797     23  2.300                                             
     0      5.7660125     23  2.300                                             
     1     -2.7211652     23  2.300                                             
     1     16.9860234     23  2.300                                             
  local pseudopotential read in
  partial core-charges read in
  partial kinetic energy density read in
  atomic valenz-charges read in
  non local Contribution for L=           2  read in
    real space projection operators read in
  non local Contribution for L=           2  read in
    real space projection operators read in
  non local Contribution for L=           0  read in
    real space projection operators read in
  non local Contribution for L=           0  read in
    real space projection operators read in
  non local Contribution for L=           1  read in
    real space projection operators read in
  non local Contribution for L=           1  read in
    real space projection operators read in
    PAW grid and wavefunctions read in
 
   number of l-projection  operators is LMAX  =           6
   number of lm-projection operators is LMMAX =          18
 
 POTCAR:    PAW_PBE C 08Apr2002                   
   VRHFIN =C: s2p2                                                              
   LEXCH  = PE                                                                  
   EATOM  =   147.1560 eV,   10.8157 Ry                                         
                                                                                
   TITEL  = PAW_PBE C 08Apr2002                                                 
   LULTRA =        F    use ultrasoft PP ?                                      
   IUNSCR =        1    unscreen: 0-lin 1-nonlin 2-no                           
   RPACOR =    1.200    partial core radius                                     
   POMASS =   12.011; ZVAL   =    4.000    mass and valenz                      
   RCORE  =    1.500    outmost cutoff radius                                   
   RWIGS  =    1.630; RWIGS  =    0.863    wigner-seitz radius (au A)           
   ENMAX  =  400.000; ENMIN  =  300.000 eV                                      
   ICORE  =        2    local potential                                         
   LCOR   =        T    correct aug charges                                     
   LPAW   =        T    paw PP                                                  
   EAUG   =  644.873                                                            
   DEXC   =    0.000                                                            
   RMAX   =    1.529    core radius for proj-oper                               
   RAUG   =    1.300    factor for augmentation sphere                          
   RDEP   =    1.501    radius for radial grids                                 
   RDEPT  =    1.300    core radius for aug-charge                              
                                                                                
   Atomic configuration                                                         
    4 entries                                                                   
     n  l   j            E        occ.                                          
     1  0  0.50      -273.3789   2.0000                                         
     2  0  0.50       -13.7508   2.0000                                         
     2  1  0.50        -5.2854   2.0000                                         
     3  2  1.50        -5.4423   0.0000                                         
   Description                                                                  
     l       E           TYP  RCUT    TYP  RCUT                                 
     0    -13.7508458     23  1.200                                             
     0     -8.2022199     23  1.200                                             
     1     -5.2854383     23  1.500                                             
     1     34.0145650     23  1.500                                             
     2     -5.4423304      7  1.500                                             
  local pseudopotential read in
  partial core-charges read in
  partial kinetic energy density read in
  atomic valenz-charges read in
  non local Contribution for L=           0  read in
    real space projection operators read in
  non local Contribution for L=           0  read in
    real space projection operators read in
  non local Contribution for L=           1  read in
    real space projection operators read in
  non local Contribution for L=           1  read in
    real space projection operators read in
    PAW grid and wavefunctions read in
 
   number of l-projection  operators is LMAX  =           4
   number of lm-projection operators is LMMAX =           8
 
 POTCAR:    PAW_PBE O 08Apr2002                   
   VRHFIN =O: s2p4                                                              
   LEXCH  = PE                                                                  
   EATOM  =   432.3788 eV,   31.7789 Ry                                         
                                                                                
   TITEL  = PAW_PBE O 08Apr2002                                                 
   LULTRA =        F    use ultrasoft PP ?                                      
   IUNSCR =        1    unscreen: 0-lin 1-nonlin 2-no                           
   RPACOR =    1.200    partial core radius                                     
   POMASS =   16.000; ZVAL   =    6.000    mass and valenz                      
   RCORE  =    1.520    outmost cutoff radius                                   
   RWIGS  =    1.550; RWIGS  =    0.820    wigner-seitz radius (au A)           
   ENMAX  =  400.000; ENMIN  =  300.000 eV                                      
   ICORE  =        2    local potential                                         
   LCOR   =        T    correct aug charges                                     
   LPAW   =        T    paw PP                                                  
   EAUG   =  605.392                                                            
   DEXC   =    0.000                                                            
   RMAX   =    1.553    core radius for proj-oper                               
   RAUG   =    1.300    factor for augmentation sphere                          
   RDEP   =    1.550    radius for radial grids                                 
   RDEPT  =    1.329    core radius for aug-charge                              
                                                                                
   Atomic configuration                                                         
    4 entries                                                                   
     n  l   j            E        occ.                                          
     1  0  0.50      -514.6923   2.0000                                         
     2  0  0.50       -23.9615   2.0000                                         
     2  1  0.50        -9.0305   4.0000                                         
     3  2  1.50        -9.5241   0.0000                                         
   Description                                                                  
     l       E           TYP  RCUT    TYP  RCUT                                 
     0    -23.9615318     23  1.200                                             
     0     -9.5240782     23  1.200                                             
     1     -9.0304911     23  1.520                                             
     1      8.1634956     23  1.520                                             
     2     -9.5240782      7  1.500                                             
  local pseudopotential read in
  partial core-charges read in
  partial kinetic energy density read in
  kinetic energy density of atom read in
  atomic valenz-charges read in
  non local Contribution for L=           0  read in
    real space projection operators read in
  non local Contribution for L=           0  read in
    real space projection operators read in
  non local Contribution for L=           1  read in
    real space projection operators read in
  non local Contribution for L=           1  read in
    real space projection operators read in
    PAW grid and wavefunctions read in
 
   number of l-projection  operators is LMAX  =           4
   number of lm-projection operators is LMMAX =           8
 
 POTCAR:    PAW_PBE H 15Jun2001                   
   VRHFIN =H: ultrasoft test                                                    
   LEXCH  = PE                                                                  
   EATOM  =    12.4884 eV,    0.9179 Ry                                         
                                                                                
   TITEL  = PAW_PBE H 15Jun2001                                                 
   LULTRA =        F    use ultrasoft PP ?                                      
   IUNSCR =        0    unscreen: 0-lin 1-nonlin 2-no                           
   RPACOR =    0.000    partial core radius                                     
   POMASS =    1.000; ZVAL   =    1.000    mass and valenz                      
   RCORE  =    1.100    outmost cutoff radius                                   
   RWIGS  =    0.700; RWIGS  =    0.370    wigner-seitz radius (au A)           
   ENMAX  =  250.000; ENMIN  =  200.000 eV                                      
   RCLOC  =    0.701    cutoff for local pot                                    
   LCOR   =        T    correct aug charges                                     
   LPAW   =        T    paw PP                                                  
   EAUG   =  400.000                                                            
   RMAX   =    1.123    core radius for proj-oper                               
   RAUG   =    1.200    factor for augmentation sphere                          
   RDEP   =    1.112    radius for radial grids                                 
   RDEPT  =    0.926    core radius for aug-charge                              
                                                                                
   Atomic configuration                                                         
    2 entries                                                                   
     n  l   j            E        occ.                                          
     1  0  0.50        -6.4927   1.0000                                         
     2  1  0.50        -3.4015   0.0000                                         
   Description                                                                  
     l       E           TYP  RCUT    TYP  RCUT                                 
     0     -6.4927494     23  1.100                                             
     0      6.8029130     23  1.100                                             
     1     -4.0817478     23  1.100                                             
  local pseudopotential read in
  atomic valenz-charges read in
  non local Contribution for L=           0  read in
    real space projection operators read in
  non local Contribution for L=           0  read in
    real space projection operators read in
  non local Contribution for L=           1  read in
    real space projection operators read in
    PAW grid and wavefunctions read in
 
   number of l-projection  operators is LMAX  =           3
   number of lm-projection operators is LMMAX =           5
 
 Optimization of the real space projectors (new method)

 maximal supplied QI-value         = 16.25
 optimisation between [QCUT,QGAM] = [ 10.24, 20.48] = [ 29.35,117.42] Ry 
 Optimized for a Real-space Cutoff    1.34 Angstroem

   l    n(q)    QCUT    max X(q) W(low)/X(q) W(high)/X(q)  e(spline) 
   2      7    10.239    65.824    0.41E-03    0.10E-02    0.11E-06
   2      7    10.239    61.429    0.41E-03    0.10E-02    0.11E-06
   0      8    10.239    56.174    0.42E-03    0.17E-03    0.96E-07
   0      8    10.239    31.263    0.38E-03    0.16E-03    0.87E-07
   1      8    10.239    19.828    0.20E-03    0.56E-03    0.13E-06
   1      8    10.239    15.139    0.15E-03    0.46E-03    0.11E-06
 Optimization of the real space projectors (new method)

 maximal supplied QI-value         = 25.13
 optimisation between [QCUT,QGAM] = [ 10.05, 20.36] = [ 28.30,116.06] Ry 
 Optimized for a Real-space Cutoff    1.30 Angstroem

   l    n(q)    QCUT    max X(q) W(low)/X(q) W(high)/X(q)  e(spline) 
   0      8    10.053   115.676    0.49E-03    0.72E-03    0.18E-06
   0      8    10.053    87.132    0.49E-03    0.71E-03    0.18E-06
   1      7    10.053     4.429    0.32E-03    0.31E-03    0.18E-06
   1      7    10.053     2.733    0.23E-03    0.19E-03    0.20E-06
 Optimization of the real space projectors (new method)

 maximal supplied QI-value         = 24.76
 optimisation between [QCUT,QGAM] = [ 10.15, 20.30] = [ 28.85,115.39] Ry 
 Optimized for a Real-space Cutoff    1.38 Angstroem

   l    n(q)    QCUT    max X(q) W(low)/X(q) W(high)/X(q)  e(spline) 
   0      8    10.150    20.381    0.22E-03    0.32E-03    0.29E-06
   0      8    10.150    15.268    0.23E-03    0.35E-03    0.30E-06
   1      8    10.150     5.964    0.46E-03    0.53E-03    0.21E-06
   1      8    10.150     5.382    0.38E-03    0.45E-03    0.19E-06
 Optimization of the real space projectors (new method)

 maximal supplied QI-value         = 34.20
 optimisation between [QCUT,QGAM] = [  9.92, 20.18] = [ 27.55,114.04] Ry 
 Optimized for a Real-space Cutoff    1.26 Angstroem

   l    n(q)    QCUT    max X(q) W(low)/X(q) W(high)/X(q)  e(spline) 
   0      8     9.919    19.460    0.50E-03    0.23E-03    0.29E-06
   0      8     9.919    12.209    0.48E-03    0.23E-03    0.28E-06
   1      7     9.919     4.655    0.17E-03    0.75E-03    0.30E-06
  PAW_PBE Co 02Aug2007                  :
 energy of atom  1       EATOM= -813.3670
 kinetic energy error for atom=    0.0093 (will be added to EATOM!!)
  PAW_PBE C 08Apr2002                   :
 energy of atom  2       EATOM= -147.1560
 kinetic energy error for atom=    0.0288 (will be added to EATOM!!)
  PAW_PBE O 08Apr2002                   :
 energy of atom  3       EATOM= -432.3788
 kinetic energy error for atom=    0.1156 (will be added to EATOM!!)
  PAW_PBE H 15Jun2001                   :
 energy of atom  4       EATOM=  -12.4884
 kinetic energy error for atom=    0.0098 (will be added to EATOM!!)
 
 
 POSCAR: Co C O H                                
  positions in direct lattice
  velocities in cartesian coordinates
 exchange correlation table for  LEXCH =        8
   RHO(1)=    0.500       N(1)  =     2000
   RHO(2)=  100.500       N(2)  =     4000

 VTST: version 3.1, (03/28/14)

 CHAIN: initializing optimizer
 
 OPT: Using VASP Conjugate-Gradient optimizer
 CHAIN: Read ICHAIN            0
 
 POSCAR: Co C O H                                
  positions in direct lattice
  velocities in cartesian coordinates
 


--------------------------------------------------------------------------------------------------------


 ion  position               nearest neighbor table
   1  0.500  0.500  0.000-  17 2.46  16 2.46  14 2.46   4 2.46   2 2.46  13 2.47   9 2.47
   2  0.667  0.750  0.000-   9 2.46  11 2.46   1 2.46   3 2.46  10 2.47  14 2.47  18 2.50
   3  0.500  0.000  0.000-  16 2.46  14 2.46   4 2.46   2 2.46  15 2.47  11 2.47  19 2.49
   4  0.667  0.250  0.000-   9 2.46  11 2.46   1 2.46   3 2.46  12 2.47  16 2.47  20 2.49
   5  0.000  0.500  0.000-  12 2.46  10 2.46   8 2.46   6 2.46   9 2.47  13 2.47  21 2.50
   6  0.167  0.750  0.000-  13 2.46  15 2.46   5 2.46   7 2.46  14 2.47  10 2.47  22 2.50
   7  0.000  0.000  0.000-  12 2.46  10 2.46   8 2.46   6 2.46  11 2.47  15 2.47  23 2.49
   8  0.167  0.250  0.000-  24 2.44  13 2.46  15 2.46   5 2.46   7 2.46  16 2.47  12 2.47
   9  0.750  0.500  0.056-  25 2.38   4 2.46   2 2.46  12 2.46  10 2.46  17 2.47   5 2.47   1 2.47
                            18 2.48  20 2.48  21 2.52
  10  0.917  0.750  0.056-  26 2.39   5 2.46   7 2.46   9 2.46  11 2.46   2 2.47   6 2.47  23 2.48
                            22 2.48  21 2.49  18 2.50
  11  0.750  0.000  0.056-  27 2.38   4 2.46   2 2.46  12 2.46  10 2.46   7 2.47   3 2.47  19 2.47
                            18 2.48  20 2.49  23 2.51
  12  0.917  0.250  0.056-  28 2.36  24 2.45   5 2.46   7 2.46   9 2.46  11 2.46   4 2.47   8 2.47
                            23 2.48  21 2.49  20 2.52
  13  0.250  0.500  0.056-  24 2.45  21 2.46   8 2.46   6 2.46  16 2.46  14 2.46  17 2.47  29 2.47
                            22 2.47   1 2.47   5 2.47
  14  0.417  0.750  0.056-  30 2.37  17 2.45   1 2.46   3 2.46  13 2.46  15 2.46   6 2.47   2 2.47
                            18 2.48  19 2.49  22 2.49
  15  0.250  0.000  0.056-  31 2.39  24 2.45  23 2.46   8 2.46   6 2.46  16 2.46  14 2.46   3 2.47
                             7 2.47  22 2.49  19 2.49
  16  0.417  0.250  0.056-  20 2.44  17 2.46  24 2.46   1 2.46   3 2.46  13 2.46  15 2.46  19 2.47
                             8 2.47   4 2.47  32 2.48
  17  0.500  0.500  0.111-  30 2.43  20 2.43  18 2.45  14 2.45  16 2.46   1 2.46   9 2.47  13 2.47
                            29 2.47  25 2.48  32 2.51
  18  0.665  0.750  0.113-  26 2.39  25 2.42  27 2.42  30 2.43  17 2.45  19 2.46  14 2.48   9 2.48
                            11 2.48  10 2.50   2 2.50
  19  0.501  0.002  0.112-  31 2.38  30 2.42  20 2.42  32 2.44  27 2.46  18 2.46  16 2.47  11 2.47
                            14 2.49   3 2.49  15 2.49
  20  0.661  0.251  0.112-  28 2.38  19 2.42  17 2.43  25 2.43  16 2.44  27 2.44  32 2.47   9 2.48
                            11 2.49   4 2.49  12 2.52
  21  0.004  0.500  0.113-  25 2.39  28 2.43  22 2.43  26 2.43  29 2.43  24 2.44  13 2.46  12 2.49
                            10 2.49   5 2.50   9 2.52
  22  0.166  0.749  0.113-  30 2.38  29 2.43  21 2.43  31 2.43  26 2.45  23 2.45  13 2.47  10 2.48
                            15 2.49  14 2.49   6 2.50
  23  0.003  1.000  0.112-  27 2.39  26 2.43  28 2.43  24 2.44  22 2.45  31 2.45  15 2.46  10 2.48
                            12 2.48   7 2.49  11 2.51
  24  0.166  0.250  0.110-  21 2.44   8 2.44  23 2.44  13 2.45  15 2.45  12 2.45  32 2.46  16 2.46
                            31 2.46  29 2.49  28 2.49
  25  0.756  0.500  0.162-   9 2.38  28 2.39  21 2.39  26 2.41  18 2.42  20 2.43  17 2.48
  26  0.912  0.750  0.163-  18 2.39  10 2.39  27 2.40  25 2.41  23 2.43  21 2.43  22 2.45
  27  0.757  0.000  0.162-  11 2.38  28 2.38  23 2.39  26 2.40  18 2.42  20 2.44  19 2.46
  28  0.908  0.250  0.162-  12 2.36  20 2.38  27 2.38  25 2.39  21 2.43  23 2.43  24 2.49
  29  0.251  0.502  0.167-  36 2.03  22 2.43  30 2.43  21 2.43  32 2.47  17 2.47  13 2.47  24 2.49

  30  0.412  0.751  0.162-  14 2.37  22 2.38  31 2.40  19 2.42  18 2.43  17 2.43  29 2.43
  31  0.257  0.999  0.163-  32 2.38  19 2.38  15 2.39  30 2.40  22 2.43  23 2.45  24 2.46
  32  0.411  0.246  0.167-  36 1.94  34 2.05  31 2.38  19 2.44  24 2.46  20 2.47  29 2.47  16 2.48
                            17 2.51
  33  0.444  0.141  0.292-  39 1.10  38 1.10  37 1.11  34 1.51
  34  0.321  0.219  0.252-  36 1.36  35 1.51  33 1.51  32 2.05
  35  0.155  0.183  0.271-  42 1.10  40 1.10  41 1.11  34 1.51
  36  0.353  0.380  0.236-  34 1.36  32 1.94  29 2.03
  37  0.436  0.193  0.338-  33 1.11
  38  0.562  0.166  0.274-  33 1.10
  39  0.427  0.005  0.294-  33 1.10
  40  0.072  0.259  0.245-  35 1.10
  41  0.142  0.218  0.319-  35 1.11
  42  0.123  0.050  0.267-  35 1.10
 
  LATTYP: Found a simple orthorhombic cell.
 ALAT       =     8.0199986100
 B/A-ratio  =     1.0673318421
 C/A-ratio  =     2.7718209293
  
  Lattice vectors:
  
 A1 = (   0.0000000000,  -8.0199986100,   0.0000000000)
 A2 = (  -8.5599998900,   0.0000000000,   0.0000000000)
 A3 = (   0.0000000000,   0.0000000000, -22.2300000000)


Analysis of symmetry for initial positions (statically):
=====================================================================
 Subroutine PRICEL returns:
 Original cell was already a primitive cell.
 

 Routine SETGRP: Setting up the symmetry group for a 
 simple orthorhombic supercell.


 Subroutine GETGRP returns: Found  1 space group operations
 (whereof  1 operations were pure point group operations)
 out of a pool of  8 trial point group operations.


The static configuration has the point symmetry C_1 .


Analysis of symmetry for dynamics (positions and initial velocities):
=====================================================================
 Subroutine PRICEL returns:
 Original cell was already a primitive cell.
 

 Routine SETGRP: Setting up the symmetry group for a 
 simple orthorhombic supercell.


 Subroutine GETGRP returns: Found  1 space group operations
 (whereof  1 operations were pure point group operations)
 out of a pool of  8 trial point group operations.


The dynamic configuration has the point symmetry C_1 .


Analysis of constrained symmetry for selective dynamics:
=====================================================================
 Subroutine PRICEL returns:
 Original cell was already a primitive cell.
 

 Routine SETGRP: Setting up the symmetry group for a 
 simple orthorhombic supercell.


 Subroutine GETGRP returns: Found  1 space group operations
 (whereof  1 operations were pure point group operations)
 out of a pool of  8 trial point group operations.


The constrained configuration has the point symmetry C_1 .


Analysis of magnetic symmetry:
=====================================================================
 Subroutine PRICEL returns:
 Original cell was already a primitive cell.
 

 Subroutine MAGSYM returns: Found  1 space group operations
 (whereof  1 operations were pure point group operations)
 out of a pool of  1 trial space group operations
 (whereof  1 operations were pure point group operations)
 and found also     1 'primitive' translations


The magnetic configuration has the point symmetry C_1 .
 
 
 KPOINTS:  Automatic mesh                         

Automatic generation of k-mesh.
Space group operators:
 irot       det(A)        alpha          n_x          n_y          n_z        tau_x        tau_y        tau_z
    1     1.000000     0.000000     1.000000     0.000000     0.000000     0.000000     0.000000     0.000000
 
 Subroutine IBZKPT returns following result:
 ===========================================
 
 Found      5 irreducible k-points:
 
 Following reciprocal coordinates:
            Coordinates               Weight
  0.000000  0.000000  0.000000      1.000000
  0.333333  0.000000  0.000000      2.000000
  0.000000  0.333333  0.000000      2.000000
  0.333333  0.333333  0.000000      2.000000
 -0.333333  0.333333  0.000000      2.000000
 
 Following cartesian coordinates:
            Coordinates               Weight
  0.000000  0.000000  0.000000      1.000000
  0.096184  0.000000  0.000000      2.000000
  0.000000  0.102660  0.000000      2.000000
  0.096184  0.102660  0.000000      2.000000
 -0.096184  0.102660  0.000000      2.000000
 


--------------------------------------------------------------------------------------------------------




 Dimension of arrays:
   k-points           NKPTS =      5   k-points in BZ     NKDIM =      5   number of bands    NBANDS=    216
   number of dos      NEDOS =    301   number of ions     NIONS =     42
   non local maximal  LDIM  =      6   non local SUM 2l+1 LMDIM =     18
   total plane-waves  NPLWV = 188160
   max r-space proj   IRMAX =   1408   max aug-charges    IRDMAX=   5061
   dimension x,y,z NGX =    42 NGY =   40 NGZ =  112
   dimension x,y,z NGXF=    84 NGYF=   80 NGZF=  224
   support grid    NGXF=    84 NGYF=   80 NGZF=  224
   ions per type =              32   3   1   6
 NGX,Y,Z   is equivalent  to a cutoff of   8.16,  8.29,  8.38 a.u.
 NGXF,Y,Z  is equivalent  to a cutoff of  16.31, 16.58, 16.75 a.u.


 I would recommend the setting:
   dimension x,y,z NGX =    42 NGY =   39 NGZ =  109
 SYSTEM =  unknown system                          
 POSCAR =  Co C O H                                

 Startparameter for this run:
   NWRITE =      2    write-flag & timer
   PREC   = normal    normal or accurate (medium, high low for compatibility)
   ISTART =      0    job   : 0-new  1-cont  2-samecut
   ICHARG =      2    charge: 1-file 2-atom 10-const
   ISPIN  =      2    spin polarized calculation?
   LNONCOLLINEAR =      F non collinear calculations
   LSORBIT =      F    spin-orbit coupling
   INIWAV =      1    electr: 0-lowe 1-rand  2-diag
   LASPH  =      F    aspherical Exc in radial PAW
   METAGGA=      F    non-selfconsistent MetaGGA calc.
   LSOL =      F    Solvation

 Electronic Relaxation 1
   ENCUT  =  400.0 eV  29.40 Ry    5.42 a.u.  13.96 13.08 36.25*2*pi/ulx,y,z
   ENINI  =  400.0     initial cutoff
   ENAUG  =  644.9 eV  augmentation charge cutoff
   NELM   =     60;   NELMIN=  2; NELMDL= -5     # of ELM steps 
   EDIFF  = 0.1E-05   stopping-criterion for ELM
   LREAL  =      T    real-space projection
   NLSPLINE    = F    spline interpolate recip. space projectors
   LCOMPAT=      F    compatible to vasp.4.4
   GGA_COMPAT  = T    GGA compatible to vasp.4.4-vasp.4.6
   LMAXPAW     = -100 max onsite density
   LMAXMIX     =    2 max onsite mixed and CHGCAR
   VOSKOWN=      0    Vosko Wilk Nusair interpolation
   ROPT   =   -0.00050  -0.00050  -0.00050  -0.00050
 Ionic relaxation
   EDIFFG = -.1E-01   stopping-criterion for IOM
   NSW    =    400    number of steps for IOM
   NBLOCK =      1;   KBLOCK =    400    inner block; outer block 
   IBRION =      2    ionic relax: 0-MD 1-quasi-New 2-CG
   NFREE  =      1    steps in history (QN), initial steepest desc. (CG)
   ISIF   =      2    stress and relaxation
   IWAVPR =     11    prediction:  0-non 1-charg 2-wave 3-comb
   ISYM   =      2    0-nonsym 1-usesym 2-fastsym
   LCORR  =      T    Harris-Foulkes like correction to forces

   POTIM  = 0.5000    time-step for ionic-motion
   TEIN   =    0.0    initial temperature
   TEBEG  =    0.0;   TEEND  =   0.0 temperature during run
   SMASS  =  -3.00    Nose mass-parameter (am)
   estimated Nose-frequenzy (Omega)   =  0.10E-29 period in steps =****** mass=  -0.167E-26a.u.
   SCALEE = 1.0000    scale energy and forces
   NPACO  =    256;   APACO  = 16.0  distance and # of slots for P.C.
   PSTRESS=    0.0 pullay stress

  Mass of Ions in am
   POMASS =  58.93 12.01 16.00  1.00
  Ionic Valenz
   ZVAL   =   9.00  4.00  6.00  1.00
  Atomic Wigner-Seitz radii
   RWIGS  =  -1.00 -1.00 -1.00 -1.00
  virtual crystal weights 
   VCA    =   1.00  1.00  1.00  1.00
   NELECT =     312.0000    total number of electrons
   NUPDOWN=      -1.0000    fix difference up-down

 DOS related values:
   EMIN   =  10.00;   EMAX   =-10.00  energy-range for DOS
   EFERMI =   0.00
   ISMEAR =     2;   SIGMA  =   0.20  broadening in eV -4-tet -1-fermi 0-gaus

 Electronic relaxation 2 (details)
   IALGO  =     38    algorithm
   LDIAG  =      T    sub-space diagonalisation (order eigenvalues)
   LSUBROT=      F    optimize rotation matrix (better conditioning)
   TURBO    =      0    0=normal 1=particle mesh
   IRESTART =      0    0=no restart 2=restart with 2 vectors
   NREBOOT  =      0    no. of reboots
   NMIN     =      0    reboot dimension
   EREF     =   0.00    reference energy to select bands
   IMIX   =      4    mixing-type and parameters
     AMIX     =   0.40;   BMIX     =  1.00
     AMIX_MAG =   1.60;   BMIX_MAG =  1.00
     AMIN     =   0.10
     WC   =   100.;   INIMIX=   1;  MIXPRE=   1;  MAXMIX= -45

 Intra band minimization:
   WEIMIN = 0.0010     energy-eigenvalue tresh-hold
   EBREAK =  0.12E-08  absolut break condition
   DEPER  =   0.30     relativ break condition  

   TIME   =   0.40     timestep for ELM

  volume/ion in A,a.u.               =      36.34       245.21
  Fermi-wavevector in a.u.,A,eV,Ry     =   0.964415  1.822480 12.654723  0.930096
  Thomas-Fermi vector in A             =   2.094044
 
 Write flags
   LWAVE  =      F    write WAVECAR
   LCHARG =      F    write CHGCAR
   LVTOT  =      F    write LOCPOT, total local potential
   LVHAR  =      F    write LOCPOT, Hartree potential only
   LELF   =      F    write electronic localiz. function (ELF)
   LORBIT =      0    0 simple, 1 ext, 2 COOP (PROOUT)


 Dipole corrections
   LMONO  =      F    monopole corrections only (constant potential shift)
   LDIPOL =      F    correct potential (dipole corrections)
   IDIPOL =      3    1-x, 2-y, 3-z, 4-all directions 
   EPSILON=  1.0000000 bulk dielectric constant

 Exchange correlation treatment:
   GGA     =    PE    GGA type
   LEXCH   =     8    internal setting for exchange type
   VOSKOWN=      0    Vosko Wilk Nusair interpolation
   LHFCALC =     F    Hartree Fock is set to
   LHFONE  =     F    Hartree Fock one center treatment
   AEXX    =    0.0000 exact exchange contribution

 Linear response parameters
   LEPSILON=     F    determine dielectric tensor
   LRPA    =     F    only Hartree local field effects (RPA)
   LNABLA  =     F    use nabla operator in PAW spheres
   LVEL    =     F    velocity operator in full k-point grid
   LINTERFAST=   F  fast interpolation
   KINTER  =     0    interpolate to denser k-point grid
   CSHIFT  =0.1000    complex shift for real part using Kramers Kronig
   OMEGAMAX=  -1.0    maximum frequency
   DEG_THRESHOLD= 0.2000000E-02 threshold for treating states as degnerate
   RTIME   =    0.100 relaxation time in fs

 Orbital magnetization related:
   ORBITALMAG=     F  switch on orbital magnetization
   LCHIMAG   =     F  perturbation theory with respect to B field
   DQ        =  0.001000  dq finite difference perturbation B field



--------------------------------------------------------------------------------------------------------


 conjugate gradient relaxation of ions
   using selective dynamics as specified on POSCAR
 charge density and potential will be updated during run
 spin polarized calculation
 Variant of blocked Davidson
 Davidson routine will perform the subspace rotation
 perform sub-space diagonalisation
    after iterative eigenvector-optimisation
 modified Broyden-mixing scheme, WC =      100.0
 initial mixing is a Kerker type mixing with AMIX =  0.4000 and BMIX =      1.0000
 Hartree-type preconditioning will be used
 using additional bands           60
 real space projection scheme for non local part
 use partial core corrections
 calculate Harris-corrections to forces 
   (improved forces if not selfconsistent)
 use gradient corrections 
 use of overlap-Matrix (Vanderbilt PP)
 Methfessel and Paxton  Order N= 2 SIGMA  =   0.20


--------------------------------------------------------------------------------------------------------


  energy-cutoff  :      400.00
  volume of cell :     1526.12
      direct lattice vectors                 reciprocal lattice vectors
     8.559999890  0.000000000  0.000000000     0.116822431  0.000000000  0.000000000
     0.000000000  8.019998610  0.000000000     0.000000000  0.124688301  0.000000000
     0.000000000  0.000000000 22.230000000     0.000000000  0.000000000  0.044984256

  length of vectors
     8.559999890  8.019998610 22.230000000     0.116822431  0.124688301  0.044984256


 
 k-points in units of 2pi/SCALE and weight:  Automatic mesh                         
   0.00000000  0.00000000  0.00000000       0.111
   0.09618380  0.00000000  0.00000000       0.222
   0.00000000  0.10266003  0.00000000       0.222
   0.09618380  0.10266003  0.00000000       0.222
  -0.09618380  0.10266003  0.00000000       0.222
 
 k-points in reciprocal lattice and weights:  Automatic mesh                         
   0.00000000  0.00000000  0.00000000       0.111
   0.33333333  0.00000000  0.00000000       0.222
   0.00000000  0.33333333  0.00000000       0.222
   0.33333333  0.33333333  0.00000000       0.222
  -0.33333333  0.33333333  0.00000000       0.222
 
 position of ions in fractional coordinates (direct lattice) 
   0.49999899  0.49999954  0.00000000
   0.66670668  0.74999931  0.00000000
   0.49999899  0.00000000  0.00000000
   0.66670668  0.25000008  0.00000000
   0.00000000  0.49999954  0.00000000
   0.16670567  0.74999931  0.00000000
   0.00000000  0.00000000  0.00000000
   0.16670567  0.25000008  0.00000000
   0.74999993  0.49999954  0.05555556
   0.91670473  0.74999931  0.05555556
   0.74999993  0.00000000  0.05555556
   0.91670473  0.25000008  0.05555556
   0.25000007  0.49999954  0.05555556
   0.41670574  0.74999931  0.05555556
   0.25000007  0.00000000  0.05555556
   0.41670574  0.25000008  0.05555556
   0.50004424  0.50013114  0.11063809
   0.66529439  0.74966838  0.11267825
   0.50148524  0.00158998  0.11216686
   0.66129783  0.25059722  0.11203115
   0.00408013  0.49988660  0.11256630
   0.16606939  0.74867662  0.11261869
   0.00341427  0.99970509  0.11206437
   0.16610931  0.25002913  0.10975699
   0.75645079  0.49997677  0.16243243
   0.91174901  0.75012701  0.16293745
   0.75711732  0.00002233  0.16237231
   0.90806413  0.24989326  0.16164395
   0.25097913  0.50167975  0.16667075
   0.41230301  0.75064970  0.16196097
   0.25674553  0.99930575  0.16323375
   0.41128044  0.24586772  0.16722914
   0.44433620  0.14053942  0.29167482
   0.32088590  0.21941866  0.25224433
   0.15476436  0.18289654  0.27116215
   0.35265486  0.37992414  0.23636146
   0.43564561  0.19262411  0.33762569
   0.56217511  0.16577372  0.27428687
   0.42712150  0.00495488  0.29414808
   0.07158612  0.25856695  0.24476037
   0.14155307  0.21767246  0.31907626
   0.12290751  0.05041176  0.26691251
 
 position of ions in cartesian coordinates  (Angst):
   4.27999130  4.00999560  0.00000000
   5.70700910  6.01499340  0.00000000
   4.27999130  0.00000000  0.00000000
   5.70700910  2.00500027  0.00000000
   0.00000000  4.00999560  0.00000000
   1.42700051  6.01499340  0.00000000
   0.00000000  0.00000000  0.00000000
   1.42700051  2.00500027  0.00000000
   6.41999930  4.00999560  1.23500000
   7.84699240  6.01499340  1.23500000
   6.41999930  0.00000000  1.23500000
   7.84699240  2.00500027  1.23500000
   2.14000059  4.00999560  1.23500000
   3.56700110  6.01499340  1.23500000
   2.14000059  0.00000000  1.23500000
   3.56700110  2.00500027  1.23500000
   4.28037867  4.01105101  2.45948482
   5.69491991  6.01233938  2.50483753
   4.29271360  0.01275163  2.49346922
   5.66070936  2.00978934  2.49045257
   0.03492591  4.00908980  2.50234893
   1.42155393  6.00438547  2.50351355
   0.02922617  8.01763344  2.49119095
   1.42189568  2.00523330  2.43989781
   6.47521868  4.00981297  3.61087290
   7.80457142  6.01601757  3.62209947
   6.48092420  0.00017909  3.60953646
   7.77302885  2.00414361  3.59334509
   2.14838131  4.02347089  3.70509077
   3.52931375  6.02020957  3.60039244
   2.19774169  8.01443075  3.62868622
   3.52056050  1.97185880  3.71750385
   3.80351782  1.12712592  6.48393123
   2.74678324  1.75973731  5.60739155
   1.32478289  1.46682998  6.02793470
   3.01872554  3.04699111  5.25431525
   3.72912640  1.54484508  7.50541901
   4.81221889  1.32950499  6.09739720
   3.65616002  0.03973815  6.53891181
   0.61277721  2.07370659  5.44102311
   1.21169426  1.74573281  7.09306516
   1.05208829  0.40430221  5.93346504
 


--------------------------------------------------------------------------------------------------------


 k-point  1 :   0.0000 0.0000 0.0000  plane waves:   27673
 k-point  2 :   0.3333 0.0000 0.0000  plane waves:   27720
 k-point  3 :   0.0000 0.3333 0.0000  plane waves:   27710
 k-point  4 :   0.3333 0.3333 0.0000  plane waves:   27742
 k-point  5 :  -0.3333 0.3333 0.0000  plane waves:   27742

 maximum and minimum number of plane-waves per node :     27742    27673

 maximum number of plane-waves:     27742
 maximum index in each direction: 
   IXMAX=   14   IYMAX=   13   IZMAX=   36
   IXMIN=  -14   IYMIN=  -13   IZMIN=  -36

 WARNING: aliasing errors must be expected set NGX to  58 to avoid them
 WARNING: aliasing errors must be expected set NGY to  54 to avoid them
 WARNING: aliasing errors must be expected set NGZ to 146 to avoid them
 aliasing errors are usually negligible using standard VASP settings
 and one can safely disregard these warnings

 serial   3D FFT for wavefunctions
 parallel 3D FFT for charge:
    minimum data exchange during FFTs selected (reduces bandwidth)


 total amount of memory used by VASP on root node   203147. kBytes
========================================================================

   base      :      30000. kBytes
   nonlr-proj:       7686. kBytes
   fftplans  :       7367. kBytes
   grid      :      34170. kBytes
   one-center:       1306. kBytes
   wavefun   :     122618. kBytes
 
     INWAV:  cpu time    0.00: real time    0.00
 Broyden mixing: mesh for mixing (old mesh)
   NGX = 27   NGY = 27   NGZ = 73
  (NGX  = 84   NGY  = 80   NGZ  =224)
  gives a total of  53217 points

 initial charge density was supplied:
 charge density of overlapping atoms calculated
 number of electron     312.0000000 magnetization      52.1600000
 keeping initial charge density in first step


--------------------------------------------------------------------------------------------------------


 Maximum index for non-local projection operator         1315
 Maximum index for augmentation-charges          782 (set IRDMAX)


--------------------------------------------------------------------------------------------------------


 First call to EWALD:  gamma=   0.154
 Maximum number of real-space cells 4x 4x 2
 Maximum number of reciprocal cells 2x 2x 5

 FEWALD executed in parallel
    FEWALD:  cpu time    0.00: real time    0.00


----------------------------------------- Iteration    1(   1)  ---------------------------------------


    POTLOK:  cpu time    0.50: real time    0.50
    SETDIJ:  cpu time    0.05: real time    0.05
     EDDAV:  cpu time   28.54: real time   28.56
       DOS:  cpu time    0.00: real time    0.00
    --------------------------------------------
      LOOP:  cpu time   29.10: real time   29.13

 eigenvalue-minimisations  :  4320
 total energy-change (2. order) : 0.2183595E+04  (-0.1097175E+05)
 number of electron     312.0000000 magnetization      52.1600000
 augmentation part      312.0000000 magnetization      52.1600000

 Free energy of the ion-electron system (eV)
  ---------------------------------------------------
  alpha Z        PSCENC =       328.21652396
  Ewald energy   TEWEN  =    107290.55501992
  -Hartree energ DENC   =   -132563.40318870
  -exchange      EXHF   =         0.00000000
  -V(xc)+E(xc)   XCENC  =       612.48950837
  PAW double counting   =     23747.72288490   -25447.47474100
  entropy T*S    EENTRO =        -0.00209507
  eigenvalues    EBANDS =      1239.52655458
  atomic energy  EATOM  =     26975.96415486
  Solvation contrib.  Ediel  =         0.00000000
  ---------------------------------------------------
  free energy    TOTEN  =      2183.59462182 eV

  energy without entropy =     2183.59671689  energy(sigma->0) =     2183.59514558


--------------------------------------------------------------------------------------------------------




----------------------------------------- Iteration    1(   2)  ---------------------------------------


     EDDAV:  cpu time   29.04: real time   29.04
       DOS:  cpu time    0.00: real time    0.00
    --------------------------------------------
      LOOP:  cpu time   29.04: real time   29.11

 eigenvalue-minimisations  :  4424
 total energy-change (2. order) :-0.2231055E+04  (-0.2089699E+04)
 number of electron     312.0000000 magnetization      52.1600000
 augmentation part      312.0000000 magnetization      52.1600000

 Free energy of the ion-electron system (eV)
  ---------------------------------------------------
  alpha Z        PSCENC =       328.21652396
  Ewald energy   TEWEN  =    107290.55501992
  -Hartree energ DENC   =   -132563.40318870
  -exchange      EXHF   =         0.00000000
  -V(xc)+E(xc)   XCENC  =       612.48950837
  PAW double counting   =     23747.72288490   -25447.47474100
  entropy T*S    EENTRO =        -0.00350175
  eigenvalues    EBANDS =      -991.52748894
  atomic energy  EATOM  =     26975.96415486
  Solvation contrib.  Ediel  =         0.00000000
  ---------------------------------------------------
  free energy    TOTEN  =       -47.46082839 eV

  energy without entropy =      -47.45732663  energy(sigma->0) =      -47.45995295


--------------------------------------------------------------------------------------------------------




----------------------------------------- Iteration    1(   3)  ---------------------------------------


     EDDAV:  cpu time   35.60: real time   35.60
       DOS:  cpu time    0.00: real time    0.00
    --------------------------------------------
      LOOP:  cpu time   35.60: real time   35.67

 eigenvalue-minimisations  :  5760
 total energy-change (2. order) :-0.2320964E+03  (-0.2119171E+03)
 number of electron     312.0000000 magnetization      52.1600000
 augmentation part      312.0000000 magnetization      52.1600000

 Free energy of the ion-electron system (eV)
  ---------------------------------------------------
  alpha Z        PSCENC =       328.21652396
  Ewald energy   TEWEN  =    107290.55501992
  -Hartree energ DENC   =   -132563.40318870
  -exchange      EXHF   =         0.00000000
  -V(xc)+E(xc)   XCENC  =       612.48950837
  PAW double counting   =     23747.72288490   -25447.47474100
  entropy T*S    EENTRO =        -0.02818906
  eigenvalues    EBANDS =     -1223.59915969
  atomic energy  EATOM  =     26975.96415486
  Solvation contrib.  Ediel  =         0.00000000
  ---------------------------------------------------
  free energy    TOTEN  =      -279.55718645 eV

  energy without entropy =     -279.52899738  energy(sigma->0) =     -279.55013918


--------------------------------------------------------------------------------------------------------




----------------------------------------- Iteration    1(   4)  ---------------------------------------


     EDDAV:  cpu time   33.92: real time   33.93
       DOS:  cpu time    0.00: real time    0.00
    --------------------------------------------
      LOOP:  cpu time   33.93: real time   33.99

 eigenvalue-minimisations  :  5432
 total energy-change (2. order) :-0.1654484E+02  (-0.1600425E+02)
 number of electron     312.0000000 magnetization      52.1600000
 augmentation part      312.0000000 magnetization      52.1600000

 Free energy of the ion-electron system (eV)
  ---------------------------------------------------
  alpha Z        PSCENC =       328.21652396
  Ewald energy   TEWEN  =    107290.55501992
  -Hartree energ DENC   =   -132563.40318870
  -exchange      EXHF   =         0.00000000
  -V(xc)+E(xc)   XCENC  =       612.48950837
  PAW double counting   =     23747.72288490   -25447.47474100
  entropy T*S    EENTRO =        -0.03436962
  eigenvalues    EBANDS =     -1240.13781705
  atomic energy  EATOM  =     26975.96415486
  Solvation contrib.  Ediel  =         0.00000000
  ---------------------------------------------------
  free energy    TOTEN  =      -296.10202437 eV

  energy without entropy =     -296.06765474  energy(sigma->0) =     -296.09343196


--------------------------------------------------------------------------------------------------------




----------------------------------------- Iteration    1(   5)  ---------------------------------------


     EDDAV:  cpu time   34.95: real time   34.96
       DOS:  cpu time    0.00: real time    0.00
    CHARGE:  cpu time    1.28: real time    1.28
    MIXING:  cpu time    0.01: real time    0.01
    --------------------------------------------
      LOOP:  cpu time   36.24: real time   36.30

 eigenvalue-minimisations  :  5680
 total energy-change (2. order) :-0.5626592E+00  (-0.5599461E+00)
 number of electron     312.0000748 magnetization      52.6783113
 augmentation part      150.2576779 magnetization      38.8835517

 Broyden mixing:
  rms(total) = 0.61241E+01    rms(broyden)= 0.61237E+01
  rms(prec ) = 0.64265E+01
  weight for this iteration     100.00

 Free energy of the ion-electron system (eV)
  ---------------------------------------------------
  alpha Z        PSCENC =       328.21652396
  Ewald energy   TEWEN  =    107290.55501992
  -Hartree energ DENC   =   -132563.40318870
  -exchange      EXHF   =         0.00000000
  -V(xc)+E(xc)   XCENC  =       612.48950837
  PAW double counting   =     23747.72288490   -25447.47474100
  entropy T*S    EENTRO =        -0.03382796
  eigenvalues    EBANDS =     -1240.70101788
  atomic energy  EATOM  =     26975.96415486
  Solvation contrib.  Ediel  =         0.00000000
  ---------------------------------------------------
  free energy    TOTEN  =      -296.66468353 eV

  energy without entropy =     -296.63085557  energy(sigma->0) =     -296.65622654


--------------------------------------------------------------------------------------------------------




----------------------------------------- Iteration    1(   6)  ---------------------------------------


    POTLOK:  cpu time    0.41: real time    0.41
    SETDIJ:  cpu time    0.05: real time    0.05
     EDDAV:  cpu time   30.60: real time   30.61
       DOS:  cpu time    0.00: real time    0.00
    CHARGE:  cpu time    1.32: real time    1.32
    MIXING:  cpu time    0.01: real time    0.01
    --------------------------------------------
      LOOP:  cpu time   32.39: real time   32.45

 eigenvalue-minimisations  :  5200
 total energy-change (2. order) :-0.5768780E+02  (-0.3384085E+02)
 number of electron     312.0000647 magnetization      52.0437414
 augmentation part      168.4852071 magnetization      47.7061818

 Broyden mixing:
  rms(total) = 0.13046E+02    rms(broyden)= 0.13046E+02
  rms(prec ) = 0.13983E+02
  weight for this iteration     100.00

 eigenvalues of (default mixing * dielectric matrix)
  average eigenvalue GAMMA=   0.2549
  0.2549

 Free energy of the ion-electron system (eV)
  ---------------------------------------------------
  alpha Z        PSCENC =       328.21652396
  Ewald energy   TEWEN  =    107290.55501992
  -Hartree energ DENC   =   -132242.81930532
  -exchange      EXHF   =         0.00000000
  -V(xc)+E(xc)   XCENC  =       598.71653696
  PAW double counting   =     26015.76619172   -27562.52191785
  entropy T*S    EENTRO =         0.04110614
  eigenvalues    EBANDS =     -1758.27079540
  atomic energy  EATOM  =     26975.96415486
  Solvation contrib.  Ediel  =         0.00000000
  ---------------------------------------------------
  free energy    TOTEN  =      -354.35248500 eV

  energy without entropy =     -354.39359114  energy(sigma->0) =     -354.36276154


--------------------------------------------------------------------------------------------------------




----------------------------------------- Iteration    1(   7)  ---------------------------------------


    POTLOK:  cpu time    0.42: real time    0.42
    SETDIJ:  cpu time    0.06: real time    0.05
     EDDAV:  cpu time   30.51: real time   30.51
       DOS:  cpu time    0.00: real time    0.00
    CHARGE:  cpu time    1.41: real time    1.41
    MIXING:  cpu time    0.01: real time    0.01
    --------------------------------------------
      LOOP:  cpu time   32.41: real time   32.46

 eigenvalue-minimisations  :  4880
 total energy-change (2. order) : 0.6488054E+02  (-0.2468418E+02)
 number of electron     312.0000930 magnetization      51.7491143
 augmentation part      174.5097188 magnetization      41.5275446

 Broyden mixing:
  rms(total) = 0.71907E+01    rms(broyden)= 0.71899E+01
  rms(prec ) = 0.77942E+01
  weight for this iteration     100.00

 eigenvalues of (default mixing * dielectric matrix)
  average eigenvalue GAMMA=   0.3722
  0.5955  0.1489

 Free energy of the ion-electron system (eV)
  ---------------------------------------------------
  alpha Z        PSCENC =       328.21652396
  Ewald energy   TEWEN  =    107290.55501992
  -Hartree energ DENC   =   -132168.53356858
  -exchange      EXHF   =         0.00000000
  -V(xc)+E(xc)   XCENC  =       593.35859317
  PAW double counting   =     26501.84435819   -28073.25542890
  entropy T*S    EENTRO =         0.01861705
  eigenvalues    EBANDS =     -1737.64021460
  atomic energy  EATOM  =     26975.96415486
  Solvation contrib.  Ediel  =         0.00000000
  ---------------------------------------------------
  free energy    TOTEN  =      -289.47194494 eV

  energy without entropy =     -289.49056198  energy(sigma->0) =     -289.47659920


--------------------------------------------------------------------------------------------------------




----------------------------------------- Iteration    1(   8)  ---------------------------------------


    POTLOK:  cpu time    0.44: real time    0.43
    SETDIJ:  cpu time    0.05: real time    0.05
     EDDAV:  cpu time   31.34: real time   31.35
       DOS:  cpu time    0.00: real time    0.00
    CHARGE:  cpu time    1.48: real time    1.48
    MIXING:  cpu time    0.01: real time    0.01
    --------------------------------------------
      LOOP:  cpu time   33.32: real time   33.39

 eigenvalue-minimisations  :  4976
 total energy-change (2. order) : 0.1653549E+02  (-0.8139309E+01)
 number of electron     312.0000829 magnetization      51.4732923
 augmentation part      167.5080516 magnetization      43.9892710

 Broyden mixing:
  rms(total) = 0.63861E+01    rms(broyden)= 0.63856E+01
  rms(prec ) = 0.70110E+01
  weight for this iteration     100.00

 eigenvalues of (default mixing * dielectric matrix)
  average eigenvalue GAMMA=   0.3822
  0.7339  0.2651  0.1474

 Free energy of the ion-electron system (eV)
  ---------------------------------------------------
  alpha Z        PSCENC =       328.21652396
  Ewald energy   TEWEN  =    107290.55501992
  -Hartree energ DENC   =   -132442.93211583
  -exchange      EXHF   =         0.00000000
  -V(xc)+E(xc)   XCENC  =       598.30843271
  PAW double counting   =     27656.27376325   -29305.89251838
  entropy T*S    EENTRO =         0.01200173
  eigenvalues    EBANDS =     -1373.44171805
  atomic energy  EATOM  =     26975.96415486
  Solvation contrib.  Ediel  =         0.00000000
  ---------------------------------------------------
  free energy    TOTEN  =      -272.93645584 eV

  energy without entropy =     -272.94845757  energy(sigma->0) =     -272.93945627


--------------------------------------------------------------------------------------------------------




----------------------------------------- Iteration    1(   9)  ---------------------------------------


    POTLOK:  cpu time    0.44: real time    0.43
    SETDIJ:  cpu time    0.05: real time    0.05
     EDDAV:  cpu time   33.22: real time   33.22
       DOS:  cpu time    0.00: real time    0.00
    CHARGE:  cpu time    1.22: real time    1.23
    MIXING:  cpu time    0.01: real time    0.01
    --------------------------------------------
      LOOP:  cpu time   34.94: real time   34.98

 eigenvalue-minimisations  :  5880
 total energy-change (2. order) :-0.6189160E+01  (-0.9118070E+01)
 number of electron     312.0000798 magnetization      51.1960396
 augmentation part      165.2775367 magnetization      42.3475967

 Broyden mixing:
  rms(total) = 0.60961E+01    rms(broyden)= 0.60956E+01
  rms(prec ) = 0.68180E+01
  weight for this iteration     100.00

 eigenvalues of (default mixing * dielectric matrix)
  average eigenvalue GAMMA=   0.4106
  0.8526  0.5104  0.1397  0.1397

 Free energy of the ion-electron system (eV)
  ---------------------------------------------------
  alpha Z        PSCENC =       328.21652396
  Ewald energy   TEWEN  =    107290.55501992
  -Hartree energ DENC   =   -132507.77085484
  -exchange      EXHF   =         0.00000000
  -V(xc)+E(xc)   XCENC  =       599.39103759
  PAW double counting   =     28110.46736014   -29784.05560025
  entropy T*S    EENTRO =         0.03923369
  eigenvalues    EBANDS =     -1291.93249086
  atomic energy  EATOM  =     26975.96415486
  Solvation contrib.  Ediel  =         0.00000000
  ---------------------------------------------------
  free energy    TOTEN  =      -279.12561579 eV

  energy without entropy =     -279.16484948  energy(sigma->0) =     -279.13542421


--------------------------------------------------------------------------------------------------------




----------------------------------------- Iteration    1(  10)  ---------------------------------------


    POTLOK:  cpu time    0.41: real time    0.41
    SETDIJ:  cpu time    0.05: real time    0.05
     EDDAV:  cpu time   27.98: real time   27.98
       DOS:  cpu time    0.00: real time    0.00
    CHARGE:  cpu time    1.09: real time    1.09
    MIXING:  cpu time    0.01: real time    0.01
    --------------------------------------------
      LOOP:  cpu time   29.54: real time   29.59

 eigenvalue-minimisations  :  5032
 total energy-change (2. order) :-0.5089627E+01  (-0.4262940E+01)
 number of electron     312.0000667 magnetization      51.1146011
 augmentation part      164.3252170 magnetization      42.0904140

 Broyden mixing:
  rms(total) = 0.61760E+01    rms(broyden)= 0.61756E+01
  rms(prec ) = 0.71953E+01
  weight for this iteration     100.00

 eigenvalues of (default mixing * dielectric matrix)
  average eigenvalue GAMMA=   0.3501
  0.8779  0.5037  0.1476  0.1476  0.0740

 Free energy of the ion-electron system (eV)
  ---------------------------------------------------
  alpha Z        PSCENC =       328.21652396
  Ewald energy   TEWEN  =    107290.55501992
  -Hartree energ DENC   =   -132525.84280921
  -exchange      EXHF   =         0.00000000
  -V(xc)+E(xc)   XCENC  =       599.86273320
  PAW double counting   =     28558.01611613   -30245.35550569
  entropy T*S    EENTRO =        -0.00751439
  eigenvalues    EBANDS =     -1265.62396109
  atomic energy  EATOM  =     26975.96415486
  Solvation contrib.  Ediel  =         0.00000000
  ---------------------------------------------------
  free energy    TOTEN  =      -284.21524230 eV

  energy without entropy =     -284.20772791  energy(sigma->0) =     -284.21336370


--------------------------------------------------------------------------------------------------------




----------------------------------------- Iteration    1(  11)  ---------------------------------------


    POTLOK:  cpu time    0.39: real time    0.39
    SETDIJ:  cpu time    0.05: real time    0.05
     EDDAV:  cpu time   27.80: real time   27.81
       DOS:  cpu time    0.00: real time    0.00
    CHARGE:  cpu time    1.05: real time    1.05
    MIXING:  cpu time    0.01: real time    0.01
    --------------------------------------------
      LOOP:  cpu time   29.31: real time   29.36

 eigenvalue-minimisations  :  5184
 total energy-change (2. order) : 0.2051182E+02  (-0.1865294E+01)
 number of electron     312.0000756 magnetization      51.1901379
 augmentation part      164.7739281 magnetization      41.6448720

 Broyden mixing:
  rms(total) = 0.30645E+01    rms(broyden)= 0.30641E+01
  rms(prec ) = 0.33420E+01
  weight for this iteration     100.00

 eigenvalues of (default mixing * dielectric matrix)
  average eigenvalue GAMMA=   0.3355
  1.0102  0.3066  0.2279  0.2279  0.1291  0.1116

 Free energy of the ion-electron system (eV)
  ---------------------------------------------------
  alpha Z        PSCENC =       328.21652396
  Ewald energy   TEWEN  =    107290.55501992
  -Hartree energ DENC   =   -132530.70004585
  -exchange      EXHF   =         0.00000000
  -V(xc)+E(xc)   XCENC  =       600.10022014
  PAW double counting   =     28696.12133619   -30386.48771626
  entropy T*S    EENTRO =         0.00224535
  eigenvalues    EBANDS =     -1237.47516350
  atomic energy  EATOM  =     26975.96415486
  Solvation contrib.  Ediel  =         0.00000000
  ---------------------------------------------------
  free energy    TOTEN  =      -263.70342520 eV

  energy without entropy =     -263.70567055  energy(sigma->0) =     -263.70398654


--------------------------------------------------------------------------------------------------------




----------------------------------------- Iteration    1(  12)  ---------------------------------------


    POTLOK:  cpu time    0.37: real time    0.37
    SETDIJ:  cpu time    0.05: real time    0.05
     EDDAV:  cpu time   27.90: real time   27.91
       DOS:  cpu time    0.00: real time    0.00
    CHARGE:  cpu time    1.07: real time    1.07
    MIXING:  cpu time    0.01: real time    0.01
    --------------------------------------------
      LOOP:  cpu time   29.41: real time   29.46

 eigenvalue-minimisations  :  5288
 total energy-change (2. order) : 0.1565486E+01  (-0.1288577E+01)
 number of electron     312.0000750 magnetization      51.3090164
 augmentation part      164.5513481 magnetization      42.4037189

 Broyden mixing:
  rms(total) = 0.32981E+01    rms(broyden)= 0.32978E+01
  rms(prec ) = 0.36394E+01
  weight for this iteration     100.00

 eigenvalues of (default mixing * dielectric matrix)
  average eigenvalue GAMMA=   0.3634
  1.1710  0.4160  0.4160  0.1919  0.1406  0.1069  0.1016

 Free energy of the ion-electron system (eV)
  ---------------------------------------------------
  alpha Z        PSCENC =       328.21652396
  Ewald energy   TEWEN  =    107290.55501992
  -Hartree energ DENC   =   -132542.02654806
  -exchange      EXHF   =         0.00000000
  -V(xc)+E(xc)   XCENC  =       600.88576391
  PAW double counting   =     28840.81731187   -30534.10475997
  entropy T*S    EENTRO =         0.00980536
  eigenvalues    EBANDS =     -1222.45521145
  atomic energy  EATOM  =     26975.96415486
  Solvation contrib.  Ediel  =         0.00000000
  ---------------------------------------------------
  free energy    TOTEN  =      -262.13793960 eV

  energy without entropy =     -262.14774496  energy(sigma->0) =     -262.14039094


--------------------------------------------------------------------------------------------------------




----------------------------------------- Iteration    1(  13)  ---------------------------------------


    POTLOK:  cpu time    0.38: real time    0.38
    SETDIJ:  cpu time    0.05: real time    0.05
     EDDAV:  cpu time   32.22: real time   32.23
       DOS:  cpu time    0.00: real time    0.00
    CHARGE:  cpu time    1.08: real time    1.09
    MIXING:  cpu time    0.01: real time    0.01
    --------------------------------------------
      LOOP:  cpu time   33.75: real time   33.78

 eigenvalue-minimisations  :  6312
 total energy-change (2. order) : 0.2112878E+01  (-0.1123833E+01)
 number of electron     312.0000799 magnetization      51.3709497
 augmentation part      164.3513065 magnetization      42.8288393

 Broyden mixing:
  rms(total) = 0.20792E+01    rms(broyden)= 0.20789E+01
  rms(prec ) = 0.22097E+01
  weight for this iteration     100.00

 eigenvalues of (default mixing * dielectric matrix)
  average eigenvalue GAMMA=   0.3570
  1.2335  0.4480  0.4480  0.1779  0.1779  0.1612  0.1200  0.0893

 Free energy of the ion-electron system (eV)
  ---------------------------------------------------
  alpha Z        PSCENC =       328.21652396
  Ewald energy   TEWEN  =    107290.55501992
  -Hartree energ DENC   =   -132554.08205518
  -exchange      EXHF   =         0.00000000
  -V(xc)+E(xc)   XCENC  =       601.77947421
  PAW double counting   =     29048.77991707   -30744.86650923
  entropy T*S    EENTRO =        -0.02469149
  eigenvalues    EBANDS =     -1206.34689603
  atomic energy  EATOM  =     26975.96415486
  Solvation contrib.  Ediel  =         0.00000000
  ---------------------------------------------------
  free energy    TOTEN  =      -260.02506191 eV

  energy without entropy =     -260.00037043  energy(sigma->0) =     -260.01888904


--------------------------------------------------------------------------------------------------------




----------------------------------------- Iteration    1(  14)  ---------------------------------------


    POTLOK:  cpu time    0.37: real time    0.37
    SETDIJ:  cpu time    0.05: real time    0.05
     EDDAV:  cpu time   25.46: real time   25.46
       DOS:  cpu time    0.00: real time    0.00
    CHARGE:  cpu time    1.08: real time    1.08
    MIXING:  cpu time    0.01: real time    0.01
    --------------------------------------------
      LOOP:  cpu time   26.97: real time   27.00

 eigenvalue-minimisations  :  4712
 total energy-change (2. order) : 0.3643930E+00  (-0.4636149E+00)
 number of electron     312.0000791 magnetization      51.5318016
 augmentation part      164.6615301 magnetization      43.2016688

 Broyden mixing:
  rms(total) = 0.15983E+01    rms(broyden)= 0.15981E+01
  rms(prec ) = 0.16978E+01
  weight for this iteration     100.00

 eigenvalues of (default mixing * dielectric matrix)
  average eigenvalue GAMMA=   0.3967
  1.3833  0.5768  0.5768  0.2817  0.2817  0.1519  0.1158  0.1054  0.0968

 Free energy of the ion-electron system (eV)
  ---------------------------------------------------
  alpha Z        PSCENC =       328.21652396
  Ewald energy   TEWEN  =    107290.55501992
  -Hartree energ DENC   =   -132553.55933358
  -exchange      EXHF   =         0.00000000
  -V(xc)+E(xc)   XCENC  =       601.92336699
  PAW double counting   =     29156.60079021   -30852.93626121
  entropy T*S    EENTRO =        -0.05097340
  eigenvalues    EBANDS =     -1206.37395670
  atomic energy  EATOM  =     26975.96415486
  Solvation contrib.  Ediel  =         0.00000000
  ---------------------------------------------------
  free energy    TOTEN  =      -259.66066894 eV

  energy without entropy =     -259.60969555  energy(sigma->0) =     -259.64792560


--------------------------------------------------------------------------------------------------------




----------------------------------------- Iteration    1(  15)  ---------------------------------------


    POTLOK:  cpu time    0.37: real time    0.37
    SETDIJ:  cpu time    0.05: real time    0.05
     EDDAV:  cpu time   28.81: real time   28.81
       DOS:  cpu time    0.00: real time    0.00
    CHARGE:  cpu time    1.04: real time    1.04
    MIXING:  cpu time    0.01: real time    0.01
    --------------------------------------------
      LOOP:  cpu time   30.28: real time   30.33

 eigenvalue-minimisations  :  5504
 total energy-change (2. order) :-0.4616492E+00  (-0.2471517E+00)
 number of electron     312.0000805 magnetization      51.6002844
 augmentation part      165.1936918 magnetization      43.7437178

 Broyden mixing:
  rms(total) = 0.16921E+01    rms(broyden)= 0.16920E+01
  rms(prec ) = 0.18020E+01
  weight for this iteration     100.00

 eigenvalues of (default mixing * dielectric matrix)
  average eigenvalue GAMMA=   0.3829
  1.4222  0.6119  0.6119  0.2869  0.2869  0.1603  0.1252  0.1252  0.1096  0.0889

 Free energy of the ion-electron system (eV)
  ---------------------------------------------------
  alpha Z        PSCENC =       328.21652396
  Ewald energy   TEWEN  =    107290.55501992
  -Hartree energ DENC   =   -132556.52460522
  -exchange      EXHF   =         0.00000000
  -V(xc)+E(xc)   XCENC  =       601.83363314
  PAW double counting   =     29403.29899851   -31100.35753971
  entropy T*S    EENTRO =        -0.03829168
  eigenvalues    EBANDS =     -1203.07021196
  atomic energy  EATOM  =     26975.96415486
  Solvation contrib.  Ediel  =         0.00000000
  ---------------------------------------------------
  free energy    TOTEN  =      -260.12231818 eV

  energy without entropy =     -260.08402650  energy(sigma->0) =     -260.11274526


--------------------------------------------------------------------------------------------------------




----------------------------------------- Iteration    1(  16)  ---------------------------------------


    POTLOK:  cpu time    0.38: real time    0.38
    SETDIJ:  cpu time    0.05: real time    0.05
     EDDAV:  cpu time   25.38: real time   25.38
       DOS:  cpu time    0.00: real time    0.00
    CHARGE:  cpu time    1.11: real time    1.11
    MIXING:  cpu time    0.02: real time    0.01
    --------------------------------------------
      LOOP:  cpu time   26.94: real time   26.98

 eigenvalue-minimisations  :  4736
 total energy-change (2. order) : 0.5663760E+00  (-0.1219042E+00)
 number of electron     312.0000800 magnetization      51.7760028
 augmentation part      165.3193859 magnetization      44.1187748

 Broyden mixing:
  rms(total) = 0.99958E+00    rms(broyden)= 0.99951E+00
  rms(prec ) = 0.10545E+01
  weight for this iteration     100.00

 eigenvalues of (default mixing * dielectric matrix)
  average eigenvalue GAMMA=   0.4159
  1.4946  0.7514  0.7514  0.3789  0.3789  0.2318  0.1400  0.1400  0.0924  0.1076
  0.1076

 Free energy of the ion-electron system (eV)
  ---------------------------------------------------
  alpha Z        PSCENC =       328.21652396
  Ewald energy   TEWEN  =    107290.55501992
  -Hartree energ DENC   =   -132560.56093800
  -exchange      EXHF   =         0.00000000
  -V(xc)+E(xc)   XCENC  =       601.81296897
  PAW double counting   =     29478.78373302   -31176.47267187
  entropy T*S    EENTRO =        -0.03109938
  eigenvalues    EBANDS =     -1197.82363366
  atomic energy  EATOM  =     26975.96415486
  Solvation contrib.  Ediel  =         0.00000000
  ---------------------------------------------------
  free energy    TOTEN  =      -259.55594219 eV

  energy without entropy =     -259.52484281  energy(sigma->0) =     -259.54816734


--------------------------------------------------------------------------------------------------------




----------------------------------------- Iteration    1(  17)  ---------------------------------------


    POTLOK:  cpu time    0.36: real time    0.37
    SETDIJ:  cpu time    0.05: real time    0.05
     EDDAV:  cpu time   28.77: real time   28.77
       DOS:  cpu time    0.00: real time    0.00
    CHARGE:  cpu time    1.08: real time    1.08
    MIXING:  cpu time    0.02: real time    0.01
    --------------------------------------------
      LOOP:  cpu time   30.27: real time   30.33

 eigenvalue-minimisations  :  5536
 total energy-change (2. order) :-0.2818196E+00  (-0.8336899E-01)
 number of electron     312.0000790 magnetization      52.0092866
 augmentation part      165.4522301 magnetization      44.5964639

 Broyden mixing:
  rms(total) = 0.11603E+01    rms(broyden)= 0.11602E+01
  rms(prec ) = 0.12404E+01
  weight for this iteration     100.00

 eigenvalues of (default mixing * dielectric matrix)
  average eigenvalue GAMMA=   0.4271
  1.5965  0.8476  0.8476  0.4306  0.4306  0.2428  0.1453  0.1453  0.1233  0.1233
  0.0919  0.1008

 Free energy of the ion-electron system (eV)
  ---------------------------------------------------
  alpha Z        PSCENC =       328.21652396
  Ewald energy   TEWEN  =    107290.55501992
  -Hartree energ DENC   =   -132571.57629019
  -exchange      EXHF   =         0.00000000
  -V(xc)+E(xc)   XCENC  =       601.99997167
  PAW double counting   =     29579.46132497   -31278.37354987
  entropy T*S    EENTRO =        -0.02313052
  eigenvalues    EBANDS =     -1186.06178657
  atomic energy  EATOM  =     26975.96415486
  Solvation contrib.  Ediel  =         0.00000000
  ---------------------------------------------------
  free energy    TOTEN  =      -259.83776177 eV

  energy without entropy =     -259.81463125  energy(sigma->0) =     -259.83197914


--------------------------------------------------------------------------------------------------------




----------------------------------------- Iteration    1(  18)  ---------------------------------------


    POTLOK:  cpu time    0.36: real time    0.36
    SETDIJ:  cpu time    0.05: real time    0.05
     EDDAV:  cpu time   26.23: real time   26.23
       DOS:  cpu time    0.00: real time    0.00
    CHARGE:  cpu time    1.08: real time    1.08
    MIXING:  cpu time    0.02: real time    0.02
    --------------------------------------------
      LOOP:  cpu time   27.74: real time   27.77

 eigenvalue-minimisations  :  4936
 total energy-change (2. order) : 0.1072583E+00  (-0.8041441E-01)
 number of electron     312.0000801 magnetization      52.2774701
 augmentation part      165.6130727 magnetization      45.0976661

 Broyden mixing:
  rms(total) = 0.86957E+00    rms(broyden)= 0.86946E+00
  rms(prec ) = 0.93829E+00
  weight for this iteration     100.00

 eigenvalues of (default mixing * dielectric matrix)
  average eigenvalue GAMMA=   0.4470
  1.6381  0.9520  0.9520  0.4734  0.4734  0.3718  0.2394  0.1540  0.1367  0.1208
  0.0912  0.1037  0.1037

 Free energy of the ion-electron system (eV)
  ---------------------------------------------------
  alpha Z        PSCENC =       328.21652396
  Ewald energy   TEWEN  =    107290.55501992
  -Hartree energ DENC   =   -132583.92236716
  -exchange      EXHF   =         0.00000000
  -V(xc)+E(xc)   XCENC  =       602.40538575
  PAW double counting   =     29687.13377408   -31387.15386577
  entropy T*S    EENTRO =        -0.01886358
  eigenvalues    EBANDS =     -1172.91026553
  atomic energy  EATOM  =     26975.96415486
  Solvation contrib.  Ediel  =         0.00000000
  ---------------------------------------------------
  free energy    TOTEN  =      -259.73050348 eV

  energy without entropy =     -259.71163990  energy(sigma->0) =     -259.72578758


--------------------------------------------------------------------------------------------------------




----------------------------------------- Iteration    1(  19)  ---------------------------------------


    POTLOK:  cpu time    0.36: real time    0.37
    SETDIJ:  cpu time    0.05: real time    0.05
     EDDAV:  cpu time   28.26: real time   28.26
       DOS:  cpu time    0.00: real time    0.00
    CHARGE:  cpu time    1.02: real time    1.02
    MIXING:  cpu time    0.02: real time    0.02
    --------------------------------------------
      LOOP:  cpu time   29.71: real time   29.74

 eigenvalue-minimisations  :  5416
 total energy-change (2. order) :-0.7523446E-01  (-0.7173307E-01)
 number of electron     312.0000802 magnetization      52.4977844
 augmentation part      165.7901696 magnetization      45.4592530

 Broyden mixing:
  rms(total) = 0.10842E+01    rms(broyden)= 0.10841E+01
  rms(prec ) = 0.11819E+01
  weight for this iteration     100.00

 eigenvalues of (default mixing * dielectric matrix)
  average eigenvalue GAMMA=   0.4539
  1.8398  0.9735  0.9735  0.5411  0.5411  0.3783  0.2481  0.1635  0.1413  0.1317
  0.1160  0.1160  0.0922  0.0975

 Free energy of the ion-electron system (eV)
  ---------------------------------------------------
  alpha Z        PSCENC =       328.21652396
  Ewald energy   TEWEN  =    107290.55501992
  -Hartree energ DENC   =   -132595.96485967
  -exchange      EXHF   =         0.00000000
  -V(xc)+E(xc)   XCENC  =       602.96315480
  PAW double counting   =     29738.45319899   -31438.78922358
  entropy T*S    EENTRO =        -0.01700603
  eigenvalues    EBANDS =     -1161.18670120
  atomic energy  EATOM  =     26975.96415486
  Solvation contrib.  Ediel  =         0.00000000
  ---------------------------------------------------
  free energy    TOTEN  =      -259.80573794 eV

  energy without entropy =     -259.78873192  energy(sigma->0) =     -259.80148644


--------------------------------------------------------------------------------------------------------




----------------------------------------- Iteration    1(  20)  ---------------------------------------


    POTLOK:  cpu time    0.37: real time    0.37
    SETDIJ:  cpu time    0.05: real time    0.05
     EDDAV:  cpu time   25.94: real time   25.94
       DOS:  cpu time    0.00: real time    0.00
    CHARGE:  cpu time    1.03: real time    1.03
    MIXING:  cpu time    0.02: real time    0.02
    --------------------------------------------
      LOOP:  cpu time   27.40: real time   27.46

 eigenvalue-minimisations  :  4864
 total energy-change (2. order) : 0.4226462E+00  (-0.7050058E-01)
 number of electron     312.0000803 magnetization      52.6573883
 augmentation part      165.7761370 magnetization      45.8272803

 Broyden mixing:
  rms(total) = 0.53367E+00    rms(broyden)= 0.53352E+00
  rms(prec ) = 0.58817E+00
  weight for this iteration     100.00

 eigenvalues of (default mixing * dielectric matrix)
  average eigenvalue GAMMA=   0.4737
  1.8671  1.0681  1.0681  0.5857  0.5857  0.4329  0.4329  0.2444  0.1461  0.1461
  0.1164  0.1164  0.0915  0.1056  0.0978

 Free energy of the ion-electron system (eV)
  ---------------------------------------------------
  alpha Z        PSCENC =       328.21652396
  Ewald energy   TEWEN  =    107290.55501992
  -Hartree energ DENC   =   -132608.69388438
  -exchange      EXHF   =         0.00000000
  -V(xc)+E(xc)   XCENC  =       603.48527268
  PAW double counting   =     29777.75901215   -31478.44527492
  entropy T*S    EENTRO =        -0.02597646
  eigenvalues    EBANDS =     -1148.19793951
  atomic energy  EATOM  =     26975.96415486
  Solvation contrib.  Ediel  =         0.00000000
  ---------------------------------------------------
  free energy    TOTEN  =      -259.38309170 eV

  energy without entropy =     -259.35711524  energy(sigma->0) =     -259.37659758


--------------------------------------------------------------------------------------------------------




----------------------------------------- Iteration    1(  21)  ---------------------------------------


    POTLOK:  cpu time    0.37: real time    0.37
    SETDIJ:  cpu time    0.05: real time    0.05
     EDDAV:  cpu time   28.55: real time   28.55
       DOS:  cpu time    0.00: real time    0.00
    CHARGE:  cpu time    1.02: real time    1.02
    MIXING:  cpu time    0.02: real time    0.02
    --------------------------------------------
      LOOP:  cpu time   30.00: real time   30.04

 eigenvalue-minimisations  :  5528
 total energy-change (2. order) :-0.1136812E-01  (-0.3829972E-01)
 number of electron     312.0000796 magnetization      52.8552783
 augmentation part      165.8250595 magnetization      46.0873582

 Broyden mixing:
  rms(total) = 0.69238E+00    rms(broyden)= 0.69233E+00
  rms(prec ) = 0.75276E+00
  weight for this iteration     100.00

 eigenvalues of (default mixing * dielectric matrix)
  average eigenvalue GAMMA=   0.4806
  2.0511  1.0999  1.0999  0.6423  0.6423  0.5200  0.4463  0.2463  0.1460  0.1460
[...]
            ion         q(e)           q(e)           rel_vol 
   -----------------------------------------------------------
      1     Co          0.030          0.034          1.086
      2     Co          0.039          0.037          1.076
      3     Co          0.034          0.036          1.081
      4     Co          0.036          0.035          1.080
      5     Co          0.036          0.036          1.080
      6     Co          0.037          0.036          1.078
      7     Co          0.035          0.036          1.080
      8     Co          0.032          0.035          1.085
      9     Co         -0.036         -0.034          0.938
     10     Co         -0.030         -0.032          0.930
     11     Co         -0.035         -0.033          0.939
     12     Co         -0.035         -0.035          0.932
     13     Co         -0.037         -0.039          0.929
     14     Co         -0.035         -0.035          0.931
     15     Co         -0.035         -0.034          0.934
     16     Co         -0.038         -0.040          0.928
     17     Co         -0.029         -0.026          0.929
     18     Co         -0.043         -0.036          0.943
     19     Co         -0.041         -0.035          0.933
     20     Co         -0.037         -0.031          0.935
     21     Co         -0.037         -0.034          0.932
     22     Co         -0.048         -0.041          0.942
     23     Co         -0.038         -0.034          0.934
     24     Co         -0.020         -0.019          0.925
     25     Co          0.040          0.037          1.058
     26     Co          0.029          0.026          1.057
     27     Co          0.031          0.034          1.065
     28     Co          0.035          0.039          1.030
     29     Co          0.109          0.098          1.004
     30     Co          0.053          0.046          1.046
     31     Co          0.071          0.070          1.019
     32     Co          0.083          0.082          0.942
     33     C          -0.144         -0.123          0.844
     34     C           0.052          0.036          0.661
     35     C          -0.136         -0.118          0.836
     36     O          -0.225         -0.185          1.035
     37     H           0.056          0.046          0.719
     38     H           0.049          0.032          0.829
     39     H           0.059          0.041          0.788
     40     H           0.019          0.010          0.771
     41     H           0.065          0.051          0.722
     42     H           0.049          0.034          0.802

  dDsC method for vdW energy calculation
  ---------------------------------------------------------------------------------------------

  Parameters of vdW forcefield:
            C6dDsC            XDM            ALPHAts        RELVOL
            (au)              (au)            (au)                
   ---------------------------------------------------------------
   Co        544.068         11.976         54.294          1.086
   Co        536.847         11.920         53.823          1.076
   Co        539.789         11.937         54.041          1.081
   Co        540.425         11.959         54.006          1.080
   Co        539.310         11.934         54.006          1.080
   Co        538.278         11.935         53.900          1.078
   Co        538.652         11.917         54.019          1.080
   Co        544.074         11.985         54.252          1.085
   Co        325.605          8.296         46.903          0.938
   Co        322.710          8.290         46.523          0.930
   Co        325.993          8.301         46.934          0.939
   Co        322.556          8.270         46.609          0.932
   Co        321.699          8.278         46.443          0.929
   Co        322.178          8.272         46.544          0.931
   Co        323.484          8.276         46.710          0.934
   Co        320.674          8.263         46.376          0.928
   Co        326.032          8.390         46.440          0.929
   Co        331.285          8.400         47.132          0.943
   Co        325.237          8.329         46.668          0.933
   Co        326.762          8.351         46.761          0.935
   Co        324.714          8.323         46.622          0.932
   Co        328.980          8.351         47.078          0.942
   Co        327.174          8.369         46.722          0.934
   Co        320.309          8.276         46.251          0.925
   Co        511.245         11.548         52.905          1.058
   Co        515.166         11.646         52.865          1.057
   Co        517.941         11.624         53.249          1.065
   Co        475.425         11.029         51.515          1.030
   Co        452.240         10.768         50.191          1.004
   Co        503.507         11.509         52.281          1.046
   Co        462.060         10.833         50.973          1.019
   Co        381.942          9.694         47.083          0.942
   C          47.604          5.617         10.128          0.844
   C          31.142          4.690          7.936          0.661
   C          46.781          5.571         10.036          0.836
   O          28.371          6.063          5.592          1.035
   H           4.570          1.688          3.235          0.719
   H           7.156          2.293          3.729          0.829
   H           6.067          2.044          3.547          0.788
   H           6.689          2.305          3.469          0.771
   H           4.633          1.704          3.249          0.722
   H           6.782          2.246          3.609          0.802

  IVDW =   4
  VDW_RADIUS =    50.000 A
  VDW_S6 aka ATT0 =    13.960
  VDW_SR aka BTT0 =     1.320
  LVDW_ONECELL = F F F

  Number of pair interactions contributing to vdW energy:  310722
  Edisp (eV):   -6.94361
    FORVDW:  cpu time   18.28: real time   18.31

  FORCE on cell =-STRESS in cart. coord.  units (eV):
  Direction    XX          YY          ZZ          XY          YZ          ZX
  --------------------------------------------------------------------------------------
  Alpha Z   328.21652   328.21652   328.21652
  Ewald  122383.97727123085.97157************   -32.45747  -191.46447    19.74374
  Hartree128557.07699128965.05703************   -23.71572  -123.37633    24.08511
  E(xc)   -1566.56050 -1565.93015 -1568.89918     0.00469    -0.25712     0.03791
  Local  ************************256691.26218    57.79666   310.40182   -48.38744
  n-local  -233.34689  -225.52970  -249.04974     0.25596    -0.33915    -0.76990
  augment  4998.08916  4990.09913  4991.09290    -0.02002    -0.13682     1.48762
  Kinetic  2797.30420  2767.21995  2805.34740    -1.79148     4.97749     3.88914
  Fock        0.00000     0.00000     0.00000     0.00000     0.00000     0.00000
  vdW        -8.84391    -8.66132    -4.39300     0.00247     0.06306    -0.02839
  -------------------------------------------------------------------------------------
  Total     -24.80991   -23.49080    -7.84709     0.07509    -0.13150     0.05778
  in kB     -26.04643   -24.66158    -8.23819     0.07883    -0.13805     0.06066
  external pressure =      -19.65 kB  Pullay stress =        0.00 kB


 VOLUME and BASIS-vectors are now :
 -----------------------------------------------------------------------------
  energy-cutoff  :      400.00
  volume of cell :     1526.12
      direct lattice vectors                 reciprocal lattice vectors
     8.559999890  0.000000000  0.000000000     0.116822431  0.000000000  0.000000000
     0.000000000  8.019998610  0.000000000     0.000000000  0.124688301  0.000000000
     0.000000000  0.000000000 22.230000000     0.000000000  0.000000000  0.044984256

  length of vectors
     8.559999890  8.019998610 22.230000000     0.116822431  0.124688301  0.044984256


 FORCES acting on ions
    electron-ion (+dipol)            ewald-force                    non-local-force                 convergence-correction
 -----------------------------------------------------------------------------------------------
   0.421E+02 -.520E+01 0.198E+04   -.407E+02 0.520E+01 -.198E+04   -.116E+01 -.250E-01 -.406E+01   0.110E-02 0.391E-02 0.225E-02
   -.530E+02 -.616E+00 0.196E+04   0.515E+02 0.626E+00 -.196E+04   0.120E+01 0.140E-02 -.435E+01   -.624E-02 -.351E-02 -.525E-03
   0.421E+02 0.572E+01 0.198E+04   -.407E+02 -.575E+01 -.197E+04   -.123E+01 0.483E-01 -.424E+01   -.571E-02 -.396E-02 -.776E-03
   -.548E+02 0.394E+00 0.197E+04   0.534E+02 -.441E+00 -.197E+04   0.114E+01 0.265E-01 -.413E+01   0.517E-03 0.351E-02 -.226E-02
   0.551E+02 -.573E+01 0.197E+04   -.537E+02 0.579E+01 -.197E+04   -.122E+01 -.419E-01 -.421E+01   -.629E-03 -.233E-02 -.302E-02
   -.433E+02 0.371E-01 0.197E+04   0.419E+02 -.610E-01 -.197E+04   0.121E+01 0.162E-01 -.425E+01   0.584E-02 0.297E-02 -.215E-02
   0.549E+02 0.589E+01 0.197E+04   -.535E+02 -.587E+01 -.197E+04   -.120E+01 -.390E-01 -.427E+01   0.621E-02 0.231E-02 -.482E-02
   -.427E+02 -.403E+00 0.199E+04   0.413E+02 0.458E+00 -.198E+04   0.117E+01 -.127E-01 -.408E+01   -.921E-03 -.293E-02 -.380E-02
   -.166E+02 -.922E+01 0.853E+03   0.168E+02 0.924E+01 -.854E+03   -.274E+00 -.556E-01 0.899E+00   -.433E-02 -.101E-02 0.128E-02
   0.138E+02 0.173E+01 0.848E+03   -.140E+02 -.177E+01 -.849E+03   0.274E+00 0.179E-01 0.902E+00   -.609E-03 -.457E-02 -.221E-02
   -.124E+02 0.942E+01 0.855E+03   0.126E+02 -.941E+01 -.857E+03   -.249E+00 0.691E-02 0.910E+00   -.338E-02 0.108E-02 -.137E-02
   0.230E+02 -.168E+01 0.865E+03   -.233E+02 0.166E+01 -.867E+03   0.226E+00 0.461E-01 0.853E+00   -.792E-03 0.451E-02 -.288E-02
   -.214E+01 -.171E+02 0.873E+03   0.238E+01 0.171E+02 -.874E+03   -.283E+00 0.235E-01 0.401E+00   0.479E-02 0.429E-02 -.257E-02
   -.431E-01 -.315E+01 0.867E+03   -.202E+00 0.316E+01 -.868E+03   0.272E+00 0.288E-01 0.797E+00   0.977E-03 -.828E-04 -.624E-04
   -.385E+01 0.195E+02 0.880E+03   0.411E+01 -.195E+02 -.881E+03   -.285E+00 -.559E-01 0.784E+00   0.395E-02 -.428E-02 -.531E-02
   -.348E+01 0.482E-01 0.885E+03   0.327E+01 0.391E-02 -.886E+03   0.262E+00 -.521E-01 0.108E+00   0.948E-03 0.465E-04 -.334E-03
   -.493E+02 -.295E+02 -.486E+03   0.496E+02 0.291E+02 0.487E+03   -.338E+00 0.346E+00 -.613E+00   0.295E-02 0.434E-02 0.787E-03
   0.115E+01 0.674E+00 -.575E+03   -.153E+01 -.685E+00 0.576E+03   0.395E+00 0.226E-01 -.890E+00   -.754E-02 -.609E-02 0.193E-02
   -.546E+02 0.371E+02 -.510E+03   0.548E+02 -.365E+02 0.511E+03   -.252E+00 -.552E+00 -.991E+00   -.398E-02 -.411E-02 0.265E-03
   -.188E+02 -.305E+01 -.523E+03   0.182E+02 0.307E+01 0.524E+03   0.678E+00 -.309E-01 -.906E+00   -.117E-02 0.613E-02 0.285E-02
   0.179E+02 -.247E+02 -.547E+03   -.173E+02 0.247E+02 0.548E+03   -.598E+00 0.351E-01 -.952E+00   -.460E-02 -.160E-02 0.806E-03
   0.417E+02 -.273E+01 -.548E+03   -.420E+02 0.242E+01 0.549E+03   0.304E+00 0.307E+00 -.103E+01   0.703E-02 0.106E-02 -.197E-02
   0.110E+02 0.260E+02 -.535E+03   -.106E+02 -.259E+02 0.536E+03   -.408E+00 -.167E-01 -.976E+00   0.231E-02 0.167E-02 0.436E-03
   0.530E+02 -.241E+01 -.423E+03   -.535E+02 0.245E+01 0.424E+03   0.424E+00 -.359E-01 -.386E+00   0.836E-03 -.115E-02 -.144E-02
   0.361E+02 -.352E+02 -.167E+04   -.349E+02 0.352E+02 0.167E+04   -.116E+01 -.227E-01 0.390E+01   -.385E-02 0.490E-03 -.665E-03
   -.310E+02 0.528E+01 -.169E+04   0.299E+02 -.521E+01 0.169E+04   0.107E+01 -.611E-01 0.382E+01   -.378E-02 -.290E-02 0.534E-02
   0.355E+02 0.366E+02 -.166E+04   -.344E+02 -.366E+02 0.166E+04   -.115E+01 0.234E-01 0.378E+01   -.285E-02 -.515E-03 0.567E-02
   -.677E+00 -.701E+01 -.161E+04   -.827E+00 0.714E+01 0.161E+04   0.150E+01 -.136E+00 0.404E+01   -.344E-02 0.296E-02 0.231E-02
   0.123E+03 -.144E+03 -.155E+04   -.123E+03 0.145E+03 0.155E+04   -.294E+00 -.894E+00 0.408E+01   0.561E-02 0.114E-02 0.177E-02
   -.839E+02 0.136E+01 -.164E+04   0.829E+02 -.118E+01 0.163E+04   0.103E+01 -.179E+00 0.391E+01   0.430E-02 -.255E-02 -.339E-02
   0.870E+02 0.113E+03 -.155E+04   -.856E+02 -.114E+03 0.155E+04   -.138E+01 0.406E+00 0.447E+01   0.472E-02 -.139E-02 -.226E-03
   -.172E+03 0.400E+02 -.140E+04   0.173E+03 -.415E+02 0.139E+04   -.108E+00 0.153E+01 0.437E+01   0.409E-02 0.234E-02 0.232E-02
   -.102E+03 0.702E+02 -.962E+03   0.103E+03 -.704E+02 0.962E+03   -.832E+00 0.181E+00 -.608E-02   0.534E-03 -.100E-04 0.580E-03
   0.249E+02 0.893E+02 -.956E+03   -.261E+02 -.959E+02 0.957E+03   0.121E+01 0.659E+01 -.173E+01   0.101E-02 0.134E-03 0.567E-03
   0.134E+03 0.352E+02 -.955E+03   -.135E+03 -.350E+02 0.955E+03   0.730E+00 -.165E+00 0.209E+00   -.155E-03 0.553E-04 0.142E-02
   -.658E+02 -.253E+03 -.147E+04   0.777E+02 0.291E+03 0.148E+04   -.119E+02 -.374E+02 -.700E+01   0.242E-02 -.352E-03 0.693E-03
   -.111E+02 -.137E+02 -.260E+03   0.109E+02 0.158E+02 0.265E+03   0.300E+00 -.201E+01 -.495E+01   0.916E-04 0.596E-05 0.358E-04
   -.675E+02 -.261E+00 -.220E+03   0.727E+02 0.127E+01 0.218E+03   -.512E+01 -.101E+01 0.193E+01   0.296E-04 0.406E-04 0.147E-03
   -.741E+01 0.661E+02 -.232E+03   0.676E+01 -.716E+02 0.233E+03   0.671E+00 0.550E+01 -.277E+00   0.110E-03 -.505E-04 0.189E-03
   0.512E+02 -.261E+02 -.218E+03   -.546E+02 0.291E+02 0.215E+03   0.341E+01 -.300E+01 0.277E+01   -.143E-03 0.495E-04 0.398E-03
   0.263E+02 -.113E+02 -.267E+03   -.269E+02 0.126E+02 0.273E+03   0.613E+00 -.135E+01 -.515E+01   -.595E-04 0.176E-04 0.180E-03
   0.327E+02 0.592E+02 -.233E+03   -.342E+02 -.645E+02 0.233E+03   0.147E+01 0.529E+01 0.433E+00   -.446E-04 -.269E-04 0.424E-03
 -----------------------------------------------------------------------------------------------
   0.996E+01 0.268E+02 0.165E+02   -.313E-12 0.185E-12 -.489E-11   -.986E+01 -.267E+02 -.161E+02   0.615E-02 -.352E-03 -.713E-02
 
 
 POSITION                                       TOTAL-FORCE (eV/Angst)
 -----------------------------------------------------------------------------------
      4.27999      4.01000      0.00000         0.215443     -0.021026      0.499244
      5.70701      6.01499      0.00000        -0.222291      0.007203      0.571238
      4.27999      0.00000      0.00000         0.241481      0.011510      0.539187
      5.70701      2.00500      0.00000        -0.257741     -0.019736      0.525688
      0.00000      4.01000      0.00000         0.237833      0.014756      0.555951
      1.42700      6.01499      0.00000        -0.196576     -0.004676      0.559261
      0.00000      0.00000      0.00000         0.208587     -0.012349      0.533165
      1.42700      2.00500      0.00000        -0.218536      0.037321      0.452850
      6.42000      4.01000      1.23500        -0.033782     -0.041759     -0.532826
      7.84699      6.01499      1.23500         0.064685     -0.022832     -0.491880
      6.42000      0.00000      1.23500        -0.037432      0.020573     -0.546621
      7.84699      2.00500      1.23500        -0.018558      0.025515     -0.569894
      2.14000      4.01000      1.23500        -0.032762      0.046644     -0.421136
      3.56700      6.01499      1.23500         0.024680      0.032507     -0.644996
      2.14000      0.00000      1.23500        -0.024135     -0.068751     -0.526648
      3.56700      2.00500      1.23500         0.043975     -0.001707     -0.460346
      4.28038      4.01105      2.45948         0.001474      0.001114      0.004118
      5.69492      6.01234      2.50484        -0.004252      0.005830     -0.006937
      4.29271      0.01275      2.49347        -0.002180     -0.000558     -0.001594
      5.66071      2.00979      2.49045        -0.012214     -0.004769     -0.004910
      0.03493      4.00909      2.50235        -0.003785      0.001830     -0.007768
      1.42155      6.00439      2.50351        -0.000372      0.001690     -0.005500
      0.02923      8.01763      2.49119         0.004486      0.004145     -0.001588
      1.42190      2.00523      2.43990        -0.001862     -0.000274      0.006611
      6.47522      4.00981      3.61087         0.003440      0.002968      0.005138
      7.80457      6.01602      3.62210         0.001708      0.002397      0.001924
      6.48092      0.00018      3.60954         0.003618     -0.011018     -0.003468
      7.77303      2.00414      3.59335         0.001095     -0.001059      0.000521
      2.14838      4.02347      3.70509         0.006005      0.000440     -0.000092
      3.52931      6.02021      3.60039        -0.001313     -0.006622      0.002286
      2.19774      8.01443      3.62869        -0.000060      0.000536     -0.003333
      3.52056      1.97186      3.71750        -0.005635      0.009181      0.002250
      3.80352      1.12713      6.48393         0.012128     -0.001707     -0.001387
      2.74678      1.75974      5.60739        -0.004274     -0.005935     -0.000712
      1.32478      1.46683      6.02793        -0.007355     -0.002633      0.001393
      3.01873      3.04699      5.25432        -0.000709      0.005956      0.000910
      3.72913      1.54485      7.50542         0.004439     -0.003907     -0.008852
      4.81222      1.32950      6.09740        -0.004921     -0.001894     -0.003774
      3.65616      0.03974      6.53891         0.006200      0.001668     -0.003753
      0.61278      2.07371      5.44102         0.005954     -0.002801     -0.000929
      1.21169      1.74573      7.09307         0.001978     -0.002530     -0.009191
      1.05209      0.40430      5.93347         0.001536      0.004757     -0.003597
 -----------------------------------------------------------------------------------
    total drift:                                0.103269      0.041968      0.364063


--------------------------------------------------------------------------------------------------------



  FREE ENERGIE OF THE ION-ELECTRON SYSTEM (eV)
  ---------------------------------------------------
  free  energy   TOTEN  =      -266.67904268 eV

  energy  without entropy=     -266.64468025  energy(sigma->0) =     -266.67045207
 


--------------------------------------------------------------------------------------------------------


    POTLOK:  cpu time    0.42: real time    0.42


--------------------------------------------------------------------------------------------------------


 stress matrix after NEB project (eV)
    -24.80991      0.07509      0.05778
      0.07509    -23.49080     -0.13150
      0.05778     -0.13150     -7.84709
  FORCES: max atom, RMS     0.014001    0.006256
  FORCE total and by dimension    0.040544    0.012214
  Stress total and by dimension   35.056792   24.809911


--------------------------------------------------------------------------------------------------------


  
 reached required accuracy - stopping structural energy minimisation
     LOOP+:  cpu time 1752.29: real time 1755.85
    4ORBIT:  cpu time    0.00: real time    0.00

 total amount of memory used by VASP on root node   203147. kBytes
========================================================================

   base      :      30000. kBytes
   nonlr-proj:       7686. kBytes
   fftplans  :       7367. kBytes
   grid      :      34170. kBytes
   one-center:       1306. kBytes
   wavefun   :     122618. kBytes
 
  
  
 General timing and accounting informations for this job:
 ========================================================
  
                  Total CPU time used (sec):     1760.676
                            User time (sec):     1759.500
                          System time (sec):        1.176
                         Elapsed time (sec):     1765.826
  
                   Maximum memory used (kb):      246100.
                   Average memory used (kb):           0.
  
                          Minor page faults:       288266
                          Major page faults:            0
                 Voluntary context switches:        26557
