 vasp.5.3.5 31Mar14 (build Jan 31 2018 16:04:57) complex                        
  
 executed on             LinuxIFC date 2018.12.29  16:58:23
 running on    8 total cores
 distrk:  each k-point on    8 cores,    1 groups
 distr:  one band on NCORES_PER_BAND=   1 cores,    8 groups


--------------------------------------------------------------------------------------------------------


 INCAR:
 POTCAR:    PAW_PBE Co 02Aug2007                  
 POTCAR:    PAW_PBE C 08Apr2002                   
 POTCAR:    PAW_PBE O 08Apr2002                   
 POTCAR:    PAW_PBE H 15Jun2001                   

 ----------------------------------------------------------------------------- 
|                                                                             |
|           W    W    AA    RRRRR   N    N  II  N    N   GGGG   !!!           |
|           W    W   A  A   R    R  NN   N  II  NN   N  G    G  !!!           |
|           W    W  A    A  R    R  N N  N  II  N N  N  G       !!!           |
|           W WW W  AAAAAA  RRRRR   N  N N  II  N  N N  G  GGG   !            |
|           WW  WW  A    A  R   R   N   NN  II  N   NN  G    G                |
|           W    W  A    A  R    R  N    N  II  N    N   GGGG   !!!           |
|                                                                             |
|      For optimal performance we recommend to set                            |
|        NCORE= 4 - approx SQRT( number of cores)                             |
|      NCORE specifies how many cores store one orbital (NPAR=cpu/NCORE).     |
|      This setting can  greatly improve the performance of VASP for DFT.     |
|      The default, NPAR=number of cores might be grossly inefficient         |
|      on modern multi-core architectures or massively parallel machines.     |
|      Do your own testing !!!!                                               |
|      Unfortunately you need to use the default for GW and RPA calculations. |
|      (for HF NCORE is supported but not extensively tested yet)             |
|                                                                             |
 ----------------------------------------------------------------------------- 

 POTCAR:    PAW_PBE Co 02Aug2007                  
   VRHFIN =Co: d8 s1                                                            
   LEXCH  = PE                                                                  
   EATOM  =   813.3670 eV,   59.7808 Ry                                         
                                                                                
   TITEL  = PAW_PBE Co 02Aug2007                                                
   LULTRA =        F    use ultrasoft PP ?                                      
   IUNSCR =        1    unscreen: 0-lin 1-nonlin 2-no                           
   RPACOR =    2.000    partial core radius                                     
   POMASS =   58.933; ZVAL   =    9.000    mass and valenz                      
   RCORE  =    2.300    outmost cutoff radius                                   
   RWIGS  =    2.460; RWIGS  =    1.302    wigner-seitz radius (au A)           
   ENMAX  =  267.968; ENMIN  =  200.976 eV                                      
   RCLOC  =    1.203    cutoff for local pot                                    
   LCOR   =        T    correct aug charges                                     
   LPAW   =        T    paw PP                                                  
   EAUG   =  477.818                                                            
   DEXC   =    0.000                                                            
   RMAX   =    2.360    core radius for proj-oper                               
   RAUG   =    1.300    factor for augmentation sphere                          
   RDEP   =    2.393    radius for radial grids                                 
   RDEPT  =    1.864    core radius for aug-charge                              
                                                                                
   Atomic configuration                                                         
    9 entries                                                                   
     n  l   j            E        occ.                                          
     1  0  0.50     -7587.6674   2.0000                                         
     2  0  0.50      -893.6084   2.0000                                         
     2  1  1.50      -764.5805   6.0000                                         
     3  0  0.50       -97.5973   2.0000                                         
     3  1  1.50       -60.9648   6.0000                                         
     3  2  2.50        -4.2382   8.0000                                         
     4  0  0.50        -4.3746   1.0000                                         
     4  1  1.50        -4.0817   0.0000                                         
     4  3  2.50        -1.3606   0.0000                                         
   Description                                                                  
     l       E           TYP  RCUT    TYP  RCUT                                 
     2     -4.2382362     23  2.300                                             
     2     -5.5988188     23  2.300                                             
     0     -4.3745797     23  2.300                                             
     0      5.7660125     23  2.300                                             
     1     -2.7211652     23  2.300                                             
     1     16.9860234     23  2.300                                             
  local pseudopotential read in
  partial core-charges read in
  partial kinetic energy density read in
  atomic valenz-charges read in
  non local Contribution for L=           2  read in
    real space projection operators read in
  non local Contribution for L=           2  read in
    real space projection operators read in
  non local Contribution for L=           0  read in
    real space projection operators read in
  non local Contribution for L=           0  read in
    real space projection operators read in
  non local Contribution for L=           1  read in
    real space projection operators read in
  non local Contribution for L=           1  read in
    real space projection operators read in
    PAW grid and wavefunctions read in
 
   number of l-projection  operators is LMAX  =           6
   number of lm-projection operators is LMMAX =          18
 
 POTCAR:    PAW_PBE C 08Apr2002                   
   VRHFIN =C: s2p2                                                              
   LEXCH  = PE                                                                  
   EATOM  =   147.1560 eV,   10.8157 Ry                                         
                                                                                
   TITEL  = PAW_PBE C 08Apr2002                                                 
   LULTRA =        F    use ultrasoft PP ?                                      
   IUNSCR =        1    unscreen: 0-lin 1-nonlin 2-no                           
   RPACOR =    1.200    partial core radius                                     
   POMASS =   12.011; ZVAL   =    4.000    mass and valenz                      
   RCORE  =    1.500    outmost cutoff radius                                   
   RWIGS  =    1.630; RWIGS  =    0.863    wigner-seitz radius (au A)           
   ENMAX  =  400.000; ENMIN  =  300.000 eV                                      
   ICORE  =        2    local potential                                         
   LCOR   =        T    correct aug charges                                     
   LPAW   =        T    paw PP                                                  
   EAUG   =  644.873                                                            
   DEXC   =    0.000                                                            
   RMAX   =    1.529    core radius for proj-oper                               
   RAUG   =    1.300    factor for augmentation sphere                          
   RDEP   =    1.501    radius for radial grids                                 
   RDEPT  =    1.300    core radius for aug-charge                              
                                                                                
   Atomic configuration                                                         
    4 entries                                                                   
     n  l   j            E        occ.                                          
     1  0  0.50      -273.3789   2.0000                                         
     2  0  0.50       -13.7508   2.0000                                         
     2  1  0.50        -5.2854   2.0000                                         
     3  2  1.50        -5.4423   0.0000                                         
   Description                                                                  
     l       E           TYP  RCUT    TYP  RCUT                                 
     0    -13.7508458     23  1.200                                             
     0     -8.2022199     23  1.200                                             
     1     -5.2854383     23  1.500                                             
     1     34.0145650     23  1.500                                             
     2     -5.4423304      7  1.500                                             
  local pseudopotential read in
  partial core-charges read in
  partial kinetic energy density read in
  atomic valenz-charges read in
  non local Contribution for L=           0  read in
    real space projection operators read in
  non local Contribution for L=           0  read in
    real space projection operators read in
  non local Contribution for L=           1  read in
    real space projection operators read in
  non local Contribution for L=           1  read in
    real space projection operators read in
    PAW grid and wavefunctions read in
 
   number of l-projection  operators is LMAX  =           4
   number of lm-projection operators is LMMAX =           8
 
 POTCAR:    PAW_PBE O 08Apr2002                   
   VRHFIN =O: s2p4                                                              
   LEXCH  = PE                                                                  
   EATOM  =   432.3788 eV,   31.7789 Ry                                         
                                                                                
   TITEL  = PAW_PBE O 08Apr2002                                                 
   LULTRA =        F    use ultrasoft PP ?                                      
   IUNSCR =        1    unscreen: 0-lin 1-nonlin 2-no                           
   RPACOR =    1.200    partial core radius                                     
   POMASS =   16.000; ZVAL   =    6.000    mass and valenz                      
   RCORE  =    1.520    outmost cutoff radius                                   
   RWIGS  =    1.550; RWIGS  =    0.820    wigner-seitz radius (au A)           
   ENMAX  =  400.000; ENMIN  =  300.000 eV                                      
   ICORE  =        2    local potential                                         
   LCOR   =        T    correct aug charges                                     
   LPAW   =        T    paw PP                                                  
   EAUG   =  605.392                                                            
   DEXC   =    0.000                                                            
   RMAX   =    1.553    core radius for proj-oper                               
   RAUG   =    1.300    factor for augmentation sphere                          
   RDEP   =    1.550    radius for radial grids                                 
   RDEPT  =    1.329    core radius for aug-charge                              
                                                                                
   Atomic configuration                                                         
    4 entries                                                                   
     n  l   j            E        occ.                                          
     1  0  0.50      -514.6923   2.0000                                         
     2  0  0.50       -23.9615   2.0000                                         
     2  1  0.50        -9.0305   4.0000                                         
     3  2  1.50        -9.5241   0.0000                                         
   Description                                                                  
     l       E           TYP  RCUT    TYP  RCUT                                 
     0    -23.9615318     23  1.200                                             
     0     -9.5240782     23  1.200                                             
     1     -9.0304911     23  1.520                                             
     1      8.1634956     23  1.520                                             
     2     -9.5240782      7  1.500                                             
  local pseudopotential read in
  partial core-charges read in
  partial kinetic energy density read in
  kinetic energy density of atom read in
  atomic valenz-charges read in
  non local Contribution for L=           0  read in
    real space projection operators read in
  non local Contribution for L=           0  read in
    real space projection operators read in
  non local Contribution for L=           1  read in
    real space projection operators read in
  non local Contribution for L=           1  read in
    real space projection operators read in
    PAW grid and wavefunctions read in
 
   number of l-projection  operators is LMAX  =           4
   number of lm-projection operators is LMMAX =           8
 
 POTCAR:    PAW_PBE H 15Jun2001                   
   VRHFIN =H: ultrasoft test                                                    
   LEXCH  = PE                                                                  
   EATOM  =    12.4884 eV,    0.9179 Ry                                         
                                                                                
   TITEL  = PAW_PBE H 15Jun2001                                                 
   LULTRA =        F    use ultrasoft PP ?                                      
   IUNSCR =        0    unscreen: 0-lin 1-nonlin 2-no                           
   RPACOR =    0.000    partial core radius                                     
   POMASS =    1.000; ZVAL   =    1.000    mass and valenz                      
   RCORE  =    1.100    outmost cutoff radius                                   
   RWIGS  =    0.700; RWIGS  =    0.370    wigner-seitz radius (au A)           
   ENMAX  =  250.000; ENMIN  =  200.000 eV                                      
   RCLOC  =    0.701    cutoff for local pot                                    
   LCOR   =        T    correct aug charges                                     
   LPAW   =        T    paw PP                                                  
   EAUG   =  400.000                                                            
   RMAX   =    1.123    core radius for proj-oper                               
   RAUG   =    1.200    factor for augmentation sphere                          
   RDEP   =    1.112    radius for radial grids                                 
   RDEPT  =    0.926    core radius for aug-charge                              
                                                                                
   Atomic configuration                                                         
    2 entries                                                                   
     n  l   j            E        occ.                                          
     1  0  0.50        -6.4927   1.0000                                         
     2  1  0.50        -3.4015   0.0000                                         
   Description                                                                  
     l       E           TYP  RCUT    TYP  RCUT                                 
     0     -6.4927494     23  1.100                                             
     0      6.8029130     23  1.100                                             
     1     -4.0817478     23  1.100                                             
  local pseudopotential read in
  atomic valenz-charges read in
  non local Contribution for L=           0  read in
    real space projection operators read in
  non local Contribution for L=           0  read in
    real space projection operators read in
  non local Contribution for L=           1  read in
    real space projection operators read in
    PAW grid and wavefunctions read in
 
   number of l-projection  operators is LMAX  =           3
   number of lm-projection operators is LMMAX =           5
 
 Optimization of the real space projectors (new method)

 maximal supplied QI-value         = 16.25
 optimisation between [QCUT,QGAM] = [ 10.24, 20.48] = [ 29.35,117.42] Ry 
 Optimized for a Real-space Cutoff    1.34 Angstroem

   l    n(q)    QCUT    max X(q) W(low)/X(q) W(high)/X(q)  e(spline) 
   2      7    10.239    65.824    0.41E-03    0.10E-02    0.11E-06
   2      7    10.239    61.429    0.41E-03    0.10E-02    0.11E-06
   0      8    10.239    56.174    0.42E-03    0.17E-03    0.96E-07
   0      8    10.239    31.263    0.38E-03    0.16E-03    0.87E-07
   1      8    10.239    19.828    0.20E-03    0.56E-03    0.13E-06
   1      8    10.239    15.139    0.15E-03    0.46E-03    0.11E-06
 Optimization of the real space projectors (new method)

 maximal supplied QI-value         = 25.13
 optimisation between [QCUT,QGAM] = [ 10.05, 20.36] = [ 28.30,116.06] Ry 
 Optimized for a Real-space Cutoff    1.30 Angstroem

   l    n(q)    QCUT    max X(q) W(low)/X(q) W(high)/X(q)  e(spline) 
   0      8    10.053   115.676    0.49E-03    0.72E-03    0.18E-06
   0      8    10.053    87.132    0.49E-03    0.71E-03    0.18E-06
   1      7    10.053     4.429    0.32E-03    0.31E-03    0.18E-06
   1      7    10.053     2.733    0.23E-03    0.19E-03    0.20E-06
 Optimization of the real space projectors (new method)

 maximal supplied QI-value         = 24.76
 optimisation between [QCUT,QGAM] = [ 10.15, 20.30] = [ 28.85,115.39] Ry 
 Optimized for a Real-space Cutoff    1.38 Angstroem

   l    n(q)    QCUT    max X(q) W(low)/X(q) W(high)/X(q)  e(spline) 
   0      8    10.150    20.381    0.22E-03    0.32E-03    0.29E-06
   0      8    10.150    15.268    0.23E-03    0.35E-03    0.30E-06
   1      8    10.150     5.964    0.46E-03    0.53E-03    0.21E-06
   1      8    10.150     5.382    0.38E-03    0.45E-03    0.19E-06
 Optimization of the real space projectors (new method)

 maximal supplied QI-value         = 34.20
 optimisation between [QCUT,QGAM] = [  9.92, 20.18] = [ 27.55,114.04] Ry 
 Optimized for a Real-space Cutoff    1.26 Angstroem

   l    n(q)    QCUT    max X(q) W(low)/X(q) W(high)/X(q)  e(spline) 
   0      8     9.919    19.460    0.50E-03    0.23E-03    0.29E-06
   0      8     9.919    12.209    0.48E-03    0.23E-03    0.28E-06
   1      7     9.919     4.655    0.17E-03    0.75E-03    0.30E-06
  PAW_PBE Co 02Aug2007                  :
 energy of atom  1       EATOM= -813.3670
 kinetic energy error for atom=    0.0093 (will be added to EATOM!!)
  PAW_PBE C 08Apr2002                   :
 energy of atom  2       EATOM= -147.1560
 kinetic energy error for atom=    0.0288 (will be added to EATOM!!)
  PAW_PBE O 08Apr2002                   :
 energy of atom  3       EATOM= -432.3788
 kinetic energy error for atom=    0.1156 (will be added to EATOM!!)
  PAW_PBE H 15Jun2001                   :
 energy of atom  4       EATOM=  -12.4884
 kinetic energy error for atom=    0.0098 (will be added to EATOM!!)
 
 
 POSCAR: Co C O H                                
  positions in direct lattice
  velocities in cartesian coordinates
 exchange correlation table for  LEXCH =        8
   RHO(1)=    0.500       N(1)  =     2000
   RHO(2)=  100.500       N(2)  =     4000

 VTST: version 3.1, (03/28/14)

 CHAIN: initializing optimizer
 
 OPT: Using VASP Conjugate-Gradient optimizer
 CHAIN: Read ICHAIN            0
 
 POSCAR: Co C O H                                
  positions in direct lattice
  velocities in cartesian coordinates
 


--------------------------------------------------------------------------------------------------------


 ion  position               nearest neighbor table
   1  0.222  0.111  0.000-   4 2.47   5 2.47  13 2.47   3 2.47   2 2.47  10 2.47  11 2.47   9 2.47
                             8 2.47
   2  0.556  0.111  0.000-   5 2.47   6 2.47  14 2.47   3 2.47   1 2.47  12 2.47  11 2.47   9 2.47
                             7 2.47
   3  0.889  0.111  0.000-   4 2.47   6 2.47  15 2.47   1 2.47   2 2.47  10 2.47  12 2.47   8 2.47
                             7 2.47
   4  0.222  0.444  0.000-   9 2.47   7 2.47   3 2.47   1 2.47   6 2.47   5 2.47  16 2.47  15 2.47
                            13 2.47
   5  0.556  0.444  0.000-   7 2.47   8 2.47   1 2.47   2 2.47   4 2.47   6 2.47  17 2.47  14 2.47
                            13 2.47
   6  0.889  0.444  0.000-   9 2.47   8 2.47   2 2.47   3 2.47   4 2.47   5 2.47  18 2.47  15 2.47
                            14 2.47
   7  0.556  0.778  0.000-   5 2.47   4 2.47  16 2.47  17 2.47   8 2.47   9 2.47  12 2.47   3 2.47
                             2 2.47
   8  0.889  0.778  0.000-   5 2.47   6 2.47  17 2.47  18 2.47   7 2.47   9 2.47  10 2.47   3 2.47
                             1 2.47
   9  0.222  0.778  0.000-   4 2.47   6 2.47  18 2.47  16 2.47   7 2.47   8 2.47  11 2.47   2 2.47
                             1 2.47
  10  0.000  0.000  0.082-  13 2.47  15 2.47  11 2.47  12 2.47  17 2.47  18 2.47   1 2.47   3 2.47
                             8 2.47  26 2.48  19 2.49  21 2.50
  11  0.333  0.000  0.082-  14 2.47  13 2.47  12 2.47  10 2.47  16 2.47  18 2.47   2 2.47   1 2.47
                             9 2.47  20 2.48  27 2.50  19 2.50
  12  0.667  0.000  0.082-  14 2.47  15 2.47  11 2.47  10 2.47  16 2.47  17 2.47   2 2.47   3 2.47
                             7 2.47  20 2.49  21 2.49  25 2.50
  13  0.333  0.333  0.082-  10 2.47  11 2.47   1 2.47  14 2.47  15 2.47  16 2.47  17 2.47   5 2.47
                             4 2.47  23 2.48  19 2.49  22 2.51
  14  0.667  0.333  0.082-  11 2.47  12 2.47   2 2.47  13 2.47  15 2.47  17 2.47  18 2.47   5 2.47
                             6 2.47  20 2.49  24 2.49  23 2.50
  15  1.000  0.333  0.082-  10 2.47  12 2.47   3 2.47  13 2.47  14 2.47  18 2.47  16 2.47   4 2.47
                             6 2.47  21 2.49  24 2.49  22 2.50
  16  0.333  0.667  0.082-   7 2.47   9 2.47  17 2.47  18 2.47  13 2.47  15 2.47   4 2.47  12 2.47
                            11 2.47  25 2.49  27 2.49  22 2.51
  17  0.667  0.667  0.082-   7 2.47   8 2.47  16 2.47  18 2.47  13 2.47  14 2.47   5 2.47  10 2.47
                            12 2.47  26 2.48  23 2.49  25 2.50
  18  1.000  0.667  0.082-   9 2.47   8 2.47  16 2.47  17 2.47  15 2.47  14 2.47   6 2.47  10 2.47
                            11 2.47  26 2.48  27 2.49  24 2.49
  19  0.222  0.112  0.164-  29 2.40  28 2.40  31 2.44  23 2.46  22 2.46  21 2.47  20 2.47  26 2.48
                            27 2.48  13 2.49  10 2.49  11 2.50
  20  0.555  0.111  0.164-  32 2.40  30 2.40  29 2.40  27 2.47  19 2.47  23 2.47  25 2.47  21 2.47
                            24 2.47  11 2.48  14 2.49  12 2.49
  21  0.889  0.112  0.164-  30 2.40  28 2.40  33 2.44  24 2.46  22 2.46  19 2.47  20 2.47  26 2.48
                            25 2.48  15 2.49  12 2.49  10 2.50
  22  0.221  0.444  0.165-  21 2.46  24 2.46  27 2.46  23 2.46  19 2.46  25 2.46  31 2.47  33 2.47
                            34 2.47  15 2.50  16 2.51  13 2.51
  23  0.554  0.444  0.164-  32 2.40  35 2.40  31 2.44  19 2.46  22 2.46  25 2.47  20 2.47  26 2.48
                            13 2.48  24 2.48  17 2.49  14 2.50
  24  0.889  0.444  0.164-  32 2.40  36 2.40  33 2.44  21 2.46  22 2.46  27 2.47  20 2.47  26 2.48
                            23 2.48  15 2.49  14 2.49  18 2.49
  25  0.554  0.777  0.164-  30 2.40  35 2.40  34 2.44  27 2.46  22 2.46  23 2.47  20 2.47  26 2.48
                            21 2.48  16 2.49  12 2.50  17 2.50
  26  0.888  0.778  0.164-  35 2.39  28 2.39  36 2.39  19 2.48  24 2.48  17 2.48  21 2.48  25 2.48
                            27 2.48  23 2.48  10 2.48  18 2.48
  27  0.222  0.777  0.164-  29 2.40  36 2.40  34 2.44  25 2.46  22 2.46  24 2.47  20 2.47  26 2.48
                            19 2.48  16 2.49  18 2.49  11 2.50
  28  0.997  0.995  0.242-  26 2.39  19 2.40  21 2.40  35 2.42  36 2.42  29 2.48  30 2.48  31 2.49
                            33 2.50
  29  0.334  0.000  0.242-  20 2.40  27 2.40  19 2.40  31 2.43  34 2.43  30 2.46  32 2.46  36 2.47
                            28 2.48
  30  0.666  0.000  0.242-  21 2.40  20 2.40  25 2.40  34 2.43  33 2.43  32 2.46  29 2.46  28 2.48
                            35 2.48
  31  0.336  0.329  0.245-  40 1.99  29 2.43  32 2.43  19 2.44  23 2.44  22 2.47  28 2.49  35 2.50
                            33 2.55  34 2.55
  32  0.666  0.332  0.242-  20 2.40  24 2.40  23 2.40  31 2.43  33 2.43  30 2.46  29 2.46  35 2.48
                            36 2.48
  33  0.993  0.330  0.246-  40 1.99  32 2.43  30 2.43  21 2.44  24 2.44  22 2.47  36 2.49  28 2.50
                            34 2.55  31 2.55
  34  0.337  0.673  0.245-  40 1.99  30 2.43  29 2.43  25 2.44  27 2.44  22 2.47  35 2.49  36 2.50
                            33 2.55  31 2.55
  35  0.671  0.669  0.242-  26 2.39  25 2.40  23 2.40  28 2.42  36 2.42  32 2.48  30 2.48  34 2.49
                            31 2.50
  36  0.997  0.669  0.242-  26 2.39  27 2.40  24 2.40  28 2.42  35 2.42  29 2.47  32 2.48  33 2.49
                            34 2.50
  37  0.448  0.521  0.377-  43 1.10  41 1.10  42 1.10  38 1.52
  38  0.226  0.442  0.359-  44 1.10  40 1.45  39 1.52  37 1.52
  39  0.075  0.223  0.378-  46 1.10  47 1.10  45 1.10  38 1.52
  40  0.223  0.444  0.300-  38 1.45  31 1.99  34 1.99  33 1.99
  41  0.553  0.677  0.361-  37 1.10
  42  0.502  0.414  0.363-  37 1.10
  43  0.457  0.530  0.422-  37 1.10
  44  0.173  0.550  0.372-  38 1.10
  45  0.124  0.114  0.363-  39 1.10
  46  0.071  0.218  0.422-  39 1.10
  47  0.917  0.172  0.363-  39 1.10
 
  LATTYP: Found a hexagonal cell.
 ALAT       =     7.4100015225
 C/A-ratio  =     3.3333326485
  
  Lattice vectors:
  
 A1 = (   7.4100000000,   0.0000000000,   0.0000000000)
 A2 = (  -3.7050000000,   6.4172500001,   0.0000000000)
 A3 = (   0.0000000000,   0.0000000000,  24.7000000000)


Analysis of symmetry for initial positions (statically):
=====================================================================
 Subroutine PRICEL returns:
 Original cell was already a primitive cell.
 

 Routine SETGRP: Setting up the symmetry group for a 
 hexagonal supercell.


 Subroutine GETGRP returns: Found  1 space group operations
 (whereof  1 operations were pure point group operations)
 out of a pool of 24 trial point group operations.


The static configuration has the point symmetry C_1 .


Analysis of symmetry for dynamics (positions and initial velocities):
=====================================================================
 Subroutine PRICEL returns:
 Original cell was already a primitive cell.
 

 Routine SETGRP: Setting up the symmetry group for a 
 hexagonal supercell.


 Subroutine GETGRP returns: Found  1 space group operations
 (whereof  1 operations were pure point group operations)
 out of a pool of 24 trial point group operations.


The dynamic configuration has the point symmetry C_1 .


Analysis of constrained symmetry for selective dynamics:
=====================================================================
 Subroutine PRICEL returns:
 Original cell was already a primitive cell.
 

 Routine SETGRP: Setting up the symmetry group for a 
 hexagonal supercell.


 Subroutine GETGRP returns: Found  1 space group operations
 (whereof  1 operations were pure point group operations)
 out of a pool of 24 trial point group operations.


The constrained configuration has the point symmetry C_1 .


Analysis of magnetic symmetry:
=====================================================================
 Subroutine PRICEL returns:
 Original cell was already a primitive cell.
 

 Subroutine MAGSYM returns: Found  1 space group operations
 (whereof  1 operations were pure point group operations)
 out of a pool of  1 trial space group operations
 (whereof  1 operations were pure point group operations)
 and found also     1 'primitive' translations


The magnetic configuration has the point symmetry C_1 .
 
 
 KPOINTS:  Automatic mesh                         

Automatic generation of k-mesh.
Space group operators:
 irot       det(A)        alpha          n_x          n_y          n_z        tau_x        tau_y        tau_z
    1     1.000000     0.000000     1.000000     0.000000     0.000000     0.000000     0.000000     0.000000
 
 Subroutine IBZKPT returns following result:
 ===========================================
 
 Found      5 irreducible k-points:
 
 Following reciprocal coordinates:
            Coordinates               Weight
  0.000000  0.000000  0.000000      1.000000
  0.333333  0.000000  0.000000      2.000000
  0.000000  0.333333  0.000000      2.000000
  0.333333  0.333333  0.000000      2.000000
 -0.333333  0.333333  0.000000      2.000000
 
 Following cartesian coordinates:
            Coordinates               Weight
  0.000000  0.000000  0.000000      1.000000
  0.111111  0.064150  0.000000      2.000000
  0.000000  0.128300  0.000000      2.000000
  0.111111  0.192450  0.000000      2.000000
 -0.111111  0.064150  0.000000      2.000000
 


--------------------------------------------------------------------------------------------------------




 Dimension of arrays:
   k-points           NKPTS =      5   k-points in BZ     NKDIM =      5   number of bands    NBANDS=    240
   number of dos      NEDOS =    301   number of ions     NIONS =     47
   non local maximal  LDIM  =      6   non local SUM 2l+1 LMDIM =     18
   total plane-waves  NPLWV = 163296
   max r-space proj   IRMAX =   1582   max aug-charges    IRDMAX=   5682
   dimension x,y,z NGX =    36 NGY =   36 NGZ =  126
   dimension x,y,z NGXF=    72 NGYF=   72 NGZF=  252
   support grid    NGXF=    72 NGYF=   72 NGZF=  252
   ions per type =              36   3   1   7
 NGX,Y,Z   is equivalent  to a cutoff of   8.08,  8.08,  8.48 a.u.
 NGXF,Y,Z  is equivalent  to a cutoff of  16.15, 16.15, 16.96 a.u.


 I would recommend the setting:
   dimension x,y,z NGX =    36 NGY =   36 NGZ =  121
 SYSTEM =  unknown system                          
 POSCAR =  Co C O H                                

 Startparameter for this run:
   NWRITE =      2    write-flag & timer
   PREC   = normal    normal or accurate (medium, high low for compatibility)
   ISTART =      0    job   : 0-new  1-cont  2-samecut
   ICHARG =      2    charge: 1-file 2-atom 10-const
   ISPIN  =      2    spin polarized calculation?
   LNONCOLLINEAR =      F non collinear calculations
   LSORBIT =      F    spin-orbit coupling
   INIWAV =      1    electr: 0-lowe 1-rand  2-diag
   LASPH  =      F    aspherical Exc in radial PAW
   METAGGA=      F    non-selfconsistent MetaGGA calc.
   LSOL =      F    Solvation

 Electronic Relaxation 1
   ENCUT  =  400.0 eV  29.40 Ry    5.42 a.u.  12.08 12.08 40.28*2*pi/ulx,y,z
   ENINI  =  400.0     initial cutoff
   ENAUG  =  644.9 eV  augmentation charge cutoff
   NELM   =     60;   NELMIN=  2; NELMDL= -5     # of ELM steps 
   EDIFF  = 0.1E-05   stopping-criterion for ELM
   LREAL  =      T    real-space projection
   NLSPLINE    = F    spline interpolate recip. space projectors
   LCOMPAT=      F    compatible to vasp.4.4
   GGA_COMPAT  = T    GGA compatible to vasp.4.4-vasp.4.6
   LMAXPAW     = -100 max onsite density
   LMAXMIX     =    2 max onsite mixed and CHGCAR
   VOSKOWN=      0    Vosko Wilk Nusair interpolation
   ROPT   =   -0.00050  -0.00050  -0.00050  -0.00050
 Ionic relaxation
   EDIFFG = -.1E-01   stopping-criterion for IOM
   NSW    =    500    number of steps for IOM
   NBLOCK =      1;   KBLOCK =    500    inner block; outer block 
   IBRION =      2    ionic relax: 0-MD 1-quasi-New 2-CG
   NFREE  =      1    steps in history (QN), initial steepest desc. (CG)
   ISIF   =      2    stress and relaxation
   IWAVPR =     11    prediction:  0-non 1-charg 2-wave 3-comb
   ISYM   =      2    0-nonsym 1-usesym 2-fastsym
   LCORR  =      T    Harris-Foulkes like correction to forces

   POTIM  = 0.5000    time-step for ionic-motion
   TEIN   =    0.0    initial temperature
   TEBEG  =    0.0;   TEEND  =   0.0 temperature during run
   SMASS  =  -3.00    Nose mass-parameter (am)
   estimated Nose-frequenzy (Omega)   =  0.10E-29 period in steps =****** mass=  -0.125E-26a.u.
   SCALEE = 1.0000    scale energy and forces
   NPACO  =    256;   APACO  = 16.0  distance and # of slots for P.C.
   PSTRESS=    0.0 pullay stress

  Mass of Ions in am
   POMASS =  58.93 12.01 16.00  1.00
  Ionic Valenz
   ZVAL   =   9.00  4.00  6.00  1.00
  Atomic Wigner-Seitz radii
   RWIGS  =  -1.00 -1.00 -1.00 -1.00
  virtual crystal weights 
   VCA    =   1.00  1.00  1.00  1.00
   NELECT =     349.0000    total number of electrons
   NUPDOWN=      -1.0000    fix difference up-down

 DOS related values:
   EMIN   =  10.00;   EMAX   =-10.00  energy-range for DOS
   EFERMI =   0.00
   ISMEAR =     2;   SIGMA  =   0.20  broadening in eV -4-tet -1-fermi 0-gaus

 Electronic relaxation 2 (details)
   IALGO  =     38    algorithm
   LDIAG  =      T    sub-space diagonalisation (order eigenvalues)
   LSUBROT=      F    optimize rotation matrix (better conditioning)
   TURBO    =      0    0=normal 1=particle mesh
   IRESTART =      0    0=no restart 2=restart with 2 vectors
   NREBOOT  =      0    no. of reboots
   NMIN     =      0    reboot dimension
   EREF     =   0.00    reference energy to select bands
   IMIX   =      4    mixing-type and parameters
     AMIX     =   0.40;   BMIX     =  1.00
     AMIX_MAG =   1.60;   BMIX_MAG =  1.00
     AMIN     =   0.10
     WC   =   100.;   INIMIX=   1;  MIXPRE=   1;  MAXMIX= -45

 Intra band minimization:
   WEIMIN = 0.0010     energy-eigenvalue tresh-hold
   EBREAK =  0.10E-08  absolut break condition
   DEPER  =   0.30     relativ break condition  

   TIME   =   0.40     timestep for ELM

  volume/ion in A,a.u.               =      24.99       168.64
  Fermi-wavevector in a.u.,A,eV,Ry     =   1.092434  2.064401 16.237361  1.193412
  Thomas-Fermi vector in A             =   2.228700
 
 Write flags
   LWAVE  =      F    write WAVECAR
   LCHARG =      F    write CHGCAR
   LVTOT  =      F    write LOCPOT, total local potential
   LVHAR  =      F    write LOCPOT, Hartree potential only
   LELF   =      F    write electronic localiz. function (ELF)
   LORBIT =      0    0 simple, 1 ext, 2 COOP (PROOUT)


 Dipole corrections
   LMONO  =      F    monopole corrections only (constant potential shift)
   LDIPOL =      F    correct potential (dipole corrections)
   IDIPOL =      3    1-x, 2-y, 3-z, 4-all directions 
   EPSILON=  1.0000000 bulk dielectric constant

 Exchange correlation treatment:
   GGA     =    PE    GGA type
   LEXCH   =     8    internal setting for exchange type
   VOSKOWN=      0    Vosko Wilk Nusair interpolation
   LHFCALC =     F    Hartree Fock is set to
   LHFONE  =     F    Hartree Fock one center treatment
   AEXX    =    0.0000 exact exchange contribution

 Linear response parameters
   LEPSILON=     F    determine dielectric tensor
   LRPA    =     F    only Hartree local field effects (RPA)
   LNABLA  =     F    use nabla operator in PAW spheres
   LVEL    =     F    velocity operator in full k-point grid
   LINTERFAST=   F  fast interpolation
   KINTER  =     0    interpolate to denser k-point grid
   CSHIFT  =0.1000    complex shift for real part using Kramers Kronig
   OMEGAMAX=  -1.0    maximum frequency
   DEG_THRESHOLD= 0.2000000E-02 threshold for treating states as degnerate
   RTIME   =    0.100 relaxation time in fs

 Orbital magnetization related:
   ORBITALMAG=     F  switch on orbital magnetization
   LCHIMAG   =     F  perturbation theory with respect to B field
   DQ        =  0.001000  dq finite difference perturbation B field



--------------------------------------------------------------------------------------------------------


 conjugate gradient relaxation of ions
   using selective dynamics as specified on POSCAR
 charge density and potential will be updated during run
 spin polarized calculation
 Variant of blocked Davidson
 Davidson routine will perform the subspace rotation
 perform sub-space diagonalisation
    after iterative eigenvector-optimisation
 modified Broyden-mixing scheme, WC =      100.0
 initial mixing is a Kerker type mixing with AMIX =  0.4000 and BMIX =      1.0000
 Hartree-type preconditioning will be used
 using additional bands           65
 real space projection scheme for non local part
 use partial core corrections
 calculate Harris-corrections to forces 
   (improved forces if not selfconsistent)
 use gradient corrections 
 use of overlap-Matrix (Vanderbilt PP)
 Methfessel and Paxton  Order N= 2 SIGMA  =   0.20


--------------------------------------------------------------------------------------------------------


  energy-cutoff  :      400.00
  volume of cell :     1174.53
      direct lattice vectors                 reciprocal lattice vectors
     7.410000000  0.000000000  0.000000000     0.134952767  0.077914995  0.000000000
    -3.705000000  6.417250000  0.000000000     0.000000000  0.155829989  0.000000000
     0.000000000  0.000000000 24.700000000     0.000000000  0.000000000  0.040485830

  length of vectors
     7.410000000  7.410001522 24.700000000     0.155830021  0.155829989  0.040485830


 
 k-points in units of 2pi/SCALE and weight:  Automatic mesh                         
   0.00000000  0.00000000  0.00000000       0.111
   0.11111111  0.06415001  0.00000000       0.222
   0.00000000  0.12830002  0.00000000       0.222
   0.11111111  0.19245004  0.00000000       0.222
  -0.11111111  0.06415001  0.00000000       0.222
 
 k-points in reciprocal lattice and weights:  Automatic mesh                         
   0.00000000  0.00000000  0.00000000       0.111
   0.33333333  0.00000000  0.00000000       0.222
   0.00000000  0.33333333  0.00000000       0.222
   0.33333333  0.33333333  0.00000000       0.222
  -0.33333333  0.33333333  0.00000000       0.222
 
 position of ions in fractional coordinates (direct lattice) 
   0.22222237  0.11111141  0.00000000
   0.55555571  0.11111141  0.00000000
   0.88888904  0.11111141  0.00000000
   0.22222206  0.44444412  0.00000000
   0.55555539  0.44444412  0.00000000
   0.88888872  0.44444412  0.00000000
   0.55555431  0.77777528  0.00000000
   0.88888764  0.77777528  0.00000000
   0.22222097  0.77777528  0.00000000
   0.00000000  0.00000000  0.08164980
   0.33333333  0.00000000  0.08164980
   0.66666667  0.00000000  0.08164980
   0.33333302  0.33333270  0.08164980
   0.66666635  0.33333270  0.08164980
   0.99999968  0.33333270  0.08164980
   0.33333309  0.66666617  0.08164980
   0.66666642  0.66666617  0.08164980
   0.99999975  0.66666617  0.08164980
   0.22204056  0.11208005  0.16440493
   0.55475161  0.11100625  0.16408680
   0.88893365  0.11219941  0.16444766
   0.22127806  0.44421485  0.16518281
   0.55354715  0.44385580  0.16436156
   0.88896047  0.44400288  0.16442087
   0.55367112  0.77699246  0.16443521
   0.88827459  0.77773376  0.16369497
   0.22221111  0.77713067  0.16445224
   0.99730353  0.99547503  0.24225468
   0.33366006  0.00020391  0.24244470
   0.66564288  0.00045727  0.24229754
   0.33622847  0.32944954  0.24522669
   0.66568421  0.33224529  0.24228332
   0.99270303  0.33001323  0.24550221
   0.33651319  0.67347862  0.24545908
   0.67059126  0.66870204  0.24222832
   0.99740261  0.66875266  0.24226688
   0.44820675  0.52082454  0.37728974
   0.22629075  0.44214093  0.35855798
   0.07488099  0.22335853  0.37798763
   0.22280665  0.44424060  0.29976396
   0.55340308  0.67671862  0.36057257
   0.50205489  0.41443150  0.36337464
   0.45701424  0.52976878  0.42174743
   0.17316183  0.55048159  0.37154131
   0.12368069  0.11418453  0.36300531
   0.07059946  0.21770292  0.42249582
   0.91704228  0.17216231  0.36271000
 
 position of ions in cartesian coordinates  (Angst):
   1.23500000  0.71302972  0.00000000
   3.70500000  0.71302972  0.00000000
   6.17500000  0.71302972  0.00000000
  -0.00000000  2.85210900  0.00000000
   2.47000000  2.85210900  0.00000000
   4.94000000  2.85210900  0.00000000
   1.23500000  4.99117840  0.00000000
   3.70500000  4.99117840  0.00000000
  -1.23500000  4.99117840  0.00000000
   0.00000000  0.00000000  2.01675006
   2.47000000  0.00000000  2.01675006
   4.94000000  0.00000000  2.01675006
   1.23500000  2.13907928  2.01675006
   3.70500000  2.13907928  2.01675006
   6.17500000  2.13907928  2.01675006
   0.00000000  4.27816350  2.01675006
   2.47000000  4.27816350  2.01675006
   4.94000000  4.27816350  2.01675006
   1.23006397  0.71924568  4.06080175
   3.69943130  0.71235487  4.05294407
   6.17129950  0.72001166  4.06185713
  -0.00614562  2.85063775  4.08001547
   2.45729862  2.84833366  4.05973056
   4.94216644  2.84927746  4.06119546
   1.22394594  4.98615488  4.06154981
   3.70061113  4.99091198  4.04326576
  -1.23268477  4.98704178  4.06197025
   3.70178413  6.38821214  5.98369052
   2.47166557  0.00130852  5.98838408
   4.93071953  0.00293444  5.98474920
   1.27084238  2.11416008  6.05709924
   3.70175119  2.13210111  5.98439808
   6.13323040  2.11777740  6.06390451
  -0.00167559  4.32188069  6.06283924
   2.49154020  4.29122817  5.98303944
   4.91302469  4.29155303  5.98399196
   1.39155707  3.34226131  9.31905665
   0.03868228  2.83732889  8.85638202
  -0.27267518  1.43334752  9.33629444
   0.00508582  2.85080299  7.40416975
   1.59347438  4.34267255  8.90614253
   2.18475802  2.65951054  8.97535356
   1.42368219  3.39965871 10.41716141
  -0.75640511  3.53257801  9.17707034
   0.49342027  0.73275066  8.96623111
  -0.28344736  1.39705408 10.43564682
   6.15742192  1.10480855  8.95893708
 


--------------------------------------------------------------------------------------------------------


 k-point  1 :   0.0000 0.0000 0.0000  plane waves:   21237
 k-point  2 :   0.3333 0.0000 0.0000  plane waves:   21309
 k-point  3 :   0.0000 0.3333 0.0000  plane waves:   21309
 k-point  4 :   0.3333 0.3333 0.0000  plane waves:   21354
 k-point  5 :  -0.3333 0.3333 0.0000  plane waves:   21309

 maximum and minimum number of plane-waves per node :     21354    21237

 maximum number of plane-waves:     21354
 maximum index in each direction: 
   IXMAX=   12   IYMAX=   12   IZMAX=   40
   IXMIN=  -12   IYMIN=  -12   IZMIN=  -40

 WARNING: aliasing errors must be expected set NGX to  50 to avoid them
 WARNING: aliasing errors must be expected set NGY to  50 to avoid them
 WARNING: aliasing errors must be expected set NGZ to 162 to avoid them
 aliasing errors are usually negligible using standard VASP settings
 and one can safely disregard these warnings

 serial   3D FFT for wavefunctions
 parallel 3D FFT for charge:
    minimum data exchange during FFTs selected (reduces bandwidth)


 total amount of memory used by VASP on root node   182263. kBytes
========================================================================

   base      :      30000. kBytes
   nonlr-proj:       9730. kBytes
   fftplans  :       6203. kBytes
   grid      :      28885. kBytes
   one-center:       1461. kBytes
   wavefun   :     105984. kBytes
 
     INWAV:  cpu time    0.00: real time    0.00
 Broyden mixing: mesh for mixing (old mesh)
   NGX = 25   NGY = 25   NGZ = 81
  (NGX  = 72   NGY  = 72   NGZ  =252)
  gives a total of  50625 points

 initial charge density was supplied:
 charge density of overlapping atoms calculated
 number of electron     349.0000000 magnetization      58.6800000
 keeping initial charge density in first step


--------------------------------------------------------------------------------------------------------


 Maximum index for non-local projection operator         1508
 Maximum index for augmentation-charges          722 (set IRDMAX)


--------------------------------------------------------------------------------------------------------


 First call to EWALD:  gamma=   0.168
 Maximum number of real-space cells 4x 4x 1
 Maximum number of reciprocal cells 2x 2x 6

 FEWALD executed in parallel
    FEWALD:  cpu time    0.00: real time    0.00


----------------------------------------- Iteration    1(   1)  ---------------------------------------


    POTLOK:  cpu time    0.36: real time    0.36
    SETDIJ:  cpu time    0.05: real time    0.05
     EDDAV:  cpu time   29.76: real time   29.84
       DOS:  cpu time    0.00: real time    0.00
    --------------------------------------------
      LOOP:  cpu time   30.18: real time   30.26

 eigenvalue-minimisations  :  4800
 total energy-change (2. order) : 0.2651059E+04  (-0.1281935E+05)
 number of electron     349.0000000 magnetization      58.6800000
 augmentation part      349.0000000 magnetization      58.6800000

 Free energy of the ion-electron system (eV)
  ---------------------------------------------------
  alpha Z        PSCENC =       533.70227597
  Ewald energy   TEWEN  =    165959.03047758
  -Hartree energ DENC   =   -195071.73346884
  -exchange      EXHF   =         0.00000000
  -V(xc)+E(xc)   XCENC  =       689.96932761
  PAW double counting   =     26632.70730083   -28544.49199737
  entropy T*S    EENTRO =        -0.01275897
  eigenvalues    EBANDS =      2210.01396885
  atomic energy  EATOM  =     30241.87372392
  Solvation contrib.  Ediel  =         0.00000000
  ---------------------------------------------------
  free energy    TOTEN  =      2651.05884959 eV

  energy without entropy =     2651.07160855  energy(sigma->0) =     2651.06203933


--------------------------------------------------------------------------------------------------------




----------------------------------------- Iteration    1(   2)  ---------------------------------------


     EDDAV:  cpu time   30.36: real time   30.39
       DOS:  cpu time    0.00: real time    0.00
    --------------------------------------------
      LOOP:  cpu time   30.36: real time   30.40

 eigenvalue-minimisations  :  4800
 total energy-change (2. order) :-0.2663490E+04  (-0.2493634E+04)
 number of electron     349.0000000 magnetization      58.6800000
 augmentation part      349.0000000 magnetization      58.6800000

 Free energy of the ion-electron system (eV)
  ---------------------------------------------------
  alpha Z        PSCENC =       533.70227597
  Ewald energy   TEWEN  =    165959.03047758
  -Hartree energ DENC   =   -195071.73346884
  -exchange      EXHF   =         0.00000000
  -V(xc)+E(xc)   XCENC  =       689.96932761
  PAW double counting   =     26632.70730083   -28544.49199737
  entropy T*S    EENTRO =         0.00175543
  eigenvalues    EBANDS =      -453.49043138
  atomic energy  EATOM  =     30241.87372392
  Solvation contrib.  Ediel  =         0.00000000
  ---------------------------------------------------
  free energy    TOTEN  =       -12.43103625 eV

  energy without entropy =      -12.43279168  energy(sigma->0) =      -12.43147511


--------------------------------------------------------------------------------------------------------




----------------------------------------- Iteration    1(   3)  ---------------------------------------


     EDDAV:  cpu time   36.12: real time   36.16
       DOS:  cpu time    0.00: real time    0.00
    --------------------------------------------
      LOOP:  cpu time   36.12: real time   36.16

 eigenvalue-minimisations  :  6072
 total energy-change (2. order) :-0.3057150E+03  (-0.2711379E+03)
 number of electron     349.0000000 magnetization      58.6800000
 augmentation part      349.0000000 magnetization      58.6800000

 Free energy of the ion-electron system (eV)
  ---------------------------------------------------
  alpha Z        PSCENC =       533.70227597
  Ewald energy   TEWEN  =    165959.03047758
  -Hartree energ DENC   =   -195071.73346884
  -exchange      EXHF   =         0.00000000
  -V(xc)+E(xc)   XCENC  =       689.96932761
  PAW double counting   =     26632.70730083   -28544.49199737
  entropy T*S    EENTRO =         0.08968141
  eigenvalues    EBANDS =      -759.29333768
  atomic energy  EATOM  =     30241.87372392
  Solvation contrib.  Ediel  =         0.00000000
  ---------------------------------------------------
  free energy    TOTEN  =      -318.14601657 eV

  energy without entropy =     -318.23569798  energy(sigma->0) =     -318.16843692


--------------------------------------------------------------------------------------------------------




----------------------------------------- Iteration    1(   4)  ---------------------------------------


     EDDAV:  cpu time   32.62: real time   32.66
       DOS:  cpu time    0.00: real time    0.00
    --------------------------------------------
      LOOP:  cpu time   32.62: real time   32.66

 eigenvalue-minimisations  :  5336
 total energy-change (2. order) :-0.2478713E+02  (-0.2395679E+02)
 number of electron     349.0000000 magnetization      58.6800000
 augmentation part      349.0000000 magnetization      58.6800000

 Free energy of the ion-electron system (eV)
  ---------------------------------------------------
  alpha Z        PSCENC =       533.70227597
  Ewald energy   TEWEN  =    165959.03047758
  -Hartree energ DENC   =   -195071.73346884
  -exchange      EXHF   =         0.00000000
  -V(xc)+E(xc)   XCENC  =       689.96932761
  PAW double counting   =     26632.70730083   -28544.49199737
  entropy T*S    EENTRO =         0.11417841
  eigenvalues    EBANDS =      -784.10496768
  atomic energy  EATOM  =     30241.87372392
  Solvation contrib.  Ediel  =         0.00000000
  ---------------------------------------------------
  free energy    TOTEN  =      -342.93314957 eV

  energy without entropy =     -343.04732798  energy(sigma->0) =     -342.96169417


--------------------------------------------------------------------------------------------------------




----------------------------------------- Iteration    1(   5)  ---------------------------------------


     EDDAV:  cpu time   37.66: real time   37.71
       DOS:  cpu time    0.00: real time    0.00
    CHARGE:  cpu time    1.34: real time    1.35
    MIXING:  cpu time    0.01: real time    0.01
    --------------------------------------------
      LOOP:  cpu time   39.01: real time   39.07

 eigenvalue-minimisations  :  6336
 total energy-change (2. order) :-0.8201784E+00  (-0.8160950E+00)
 number of electron     348.9998854 magnetization      58.3682595
 augmentation part      166.9042040 magnetization      46.2083461

 Broyden mixing:
  rms(total) = 0.64499E+01    rms(broyden)= 0.64495E+01
  rms(prec ) = 0.67115E+01
  weight for this iteration     100.00

 Free energy of the ion-electron system (eV)
  ---------------------------------------------------
  alpha Z        PSCENC =       533.70227597
  Ewald energy   TEWEN  =    165959.03047758
  -Hartree energ DENC   =   -195071.73346884
  -exchange      EXHF   =         0.00000000
  -V(xc)+E(xc)   XCENC  =       689.96932761
  PAW double counting   =     26632.70730083   -28544.49199737
  entropy T*S    EENTRO =         0.11467245
  eigenvalues    EBANDS =      -784.92564011
  atomic energy  EATOM  =     30241.87372392
  Solvation contrib.  Ediel  =         0.00000000
  ---------------------------------------------------
  free energy    TOTEN  =      -343.75332796 eV

  energy without entropy =     -343.86800040  energy(sigma->0) =     -343.78199607


--------------------------------------------------------------------------------------------------------




----------------------------------------- Iteration    1(   6)  ---------------------------------------


    POTLOK:  cpu time    0.40: real time    0.40
    SETDIJ:  cpu time    0.05: real time    0.05
     EDDAV:  cpu time   37.03: real time   37.07
       DOS:  cpu time    0.00: real time    0.00
    CHARGE:  cpu time    1.31: real time    1.31
    MIXING:  cpu time    0.01: real time    0.01
    --------------------------------------------
      LOOP:  cpu time   38.80: real time   38.84

 eigenvalue-minimisations  :  6200
 total energy-change (2. order) :-0.6809532E+02  (-0.3763348E+02)
 number of electron     348.9998235 magnetization      57.8422940
 augmentation part      189.3093341 magnetization      51.3359717

 Broyden mixing:
  rms(total) = 0.13030E+02    rms(broyden)= 0.13029E+02
  rms(prec ) = 0.14455E+02
  weight for this iteration     100.00

 eigenvalues of (default mixing * dielectric matrix)
  average eigenvalue GAMMA=   0.2299
  0.2299

 Free energy of the ion-electron system (eV)
  ---------------------------------------------------
  alpha Z        PSCENC =       533.70227597
  Ewald energy   TEWEN  =    165959.03047758
  -Hartree energ DENC   =   -194710.34868037
  -exchange      EXHF   =         0.00000000
  -V(xc)+E(xc)   XCENC  =       665.16627867
  PAW double counting   =     29443.31599589   -31169.60550126
  entropy T*S    EENTRO =         0.00783280
  eigenvalues    EBANDS =     -1374.99104786
  atomic energy  EATOM  =     30241.87372392
  Solvation contrib.  Ediel  =         0.00000000
  ---------------------------------------------------
  free energy    TOTEN  =      -411.84864467 eV

  energy without entropy =     -411.85647747  energy(sigma->0) =     -411.85060287


--------------------------------------------------------------------------------------------------------




----------------------------------------- Iteration    1(   7)  ---------------------------------------


    POTLOK:  cpu time    0.39: real time    0.39
    SETDIJ:  cpu time    0.06: real time    0.05
     EDDAV:  cpu time   31.94: real time   31.98
       DOS:  cpu time    0.00: real time    0.00
    CHARGE:  cpu time    1.27: real time    1.27
    MIXING:  cpu time    0.01: real time    0.01
    --------------------------------------------
      LOOP:  cpu time   33.66: real time   33.71

 eigenvalue-minimisations  :  5320
 total energy-change (2. order) : 0.5781971E+02  (-0.2456699E+02)
 number of electron     348.9998871 magnetization      56.9665271
 augmentation part      195.8214345 magnetization      47.3394507

 Broyden mixing:
  rms(total) = 0.95160E+01    rms(broyden)= 0.95155E+01
  rms(prec ) = 0.10890E+02
  weight for this iteration     100.00

 eigenvalues of (default mixing * dielectric matrix)
  average eigenvalue GAMMA=   0.3279
  0.5279  0.1278

 Free energy of the ion-electron system (eV)
  ---------------------------------------------------
  alpha Z        PSCENC =       533.70227597
  Ewald energy   TEWEN  =    165959.03047758
  -Hartree energ DENC   =   -194460.79873010
  -exchange      EXHF   =         0.00000000
  -V(xc)+E(xc)   XCENC  =       663.80078003
  PAW double counting   =     29959.45840947   -31712.90952193
  entropy T*S    EENTRO =        -0.03598671
  eigenvalues    EBANDS =     -1538.15036395
  atomic energy  EATOM  =     30241.87372392
  Solvation contrib.  Ediel  =         0.00000000
  ---------------------------------------------------
  free energy    TOTEN  =      -354.02893572 eV

  energy without entropy =     -353.99294900  energy(sigma->0) =     -354.01993904


--------------------------------------------------------------------------------------------------------




----------------------------------------- Iteration    1(   8)  ---------------------------------------


    POTLOK:  cpu time    0.39: real time    0.39
    SETDIJ:  cpu time    0.06: real time    0.05
     EDDAV:  cpu time   35.86: real time   35.90
       DOS:  cpu time    0.00: real time    0.00
    CHARGE:  cpu time    1.30: real time    1.30
    MIXING:  cpu time    0.01: real time    0.01
    --------------------------------------------
      LOOP:  cpu time   37.62: real time   37.66

 eigenvalue-minimisations  :  6056
 total energy-change (2. order) : 0.6531207E+01  (-0.9444883E+01)
 number of electron     348.9998269 magnetization      56.5222937
 augmentation part      189.1753880 magnetization      50.2658061

 Broyden mixing:
  rms(total) = 0.96735E+01    rms(broyden)= 0.96732E+01
  rms(prec ) = 0.11842E+02
  weight for this iteration     100.00

 eigenvalues of (default mixing * dielectric matrix)
  average eigenvalue GAMMA=   0.3058
  0.5180  0.2870  0.1123

 Free energy of the ion-electron system (eV)
  ---------------------------------------------------
  alpha Z        PSCENC =       533.70227597
  Ewald energy   TEWEN  =    165959.03047758
  -Hartree energ DENC   =   -194887.66543966
  -exchange      EXHF   =         0.00000000
  -V(xc)+E(xc)   XCENC  =       666.89831077
  PAW double counting   =     31281.28854768   -33121.57932366
  entropy T*S    EENTRO =        -0.00186373
  eigenvalues    EBANDS =     -1021.04443712
  atomic energy  EATOM  =     30241.87372392
  Solvation contrib.  Ediel  =         0.00000000
  ---------------------------------------------------
  free energy    TOTEN  =      -347.49772825 eV

  energy without entropy =     -347.49586452  energy(sigma->0) =     -347.49726232


--------------------------------------------------------------------------------------------------------




----------------------------------------- Iteration    1(   9)  ---------------------------------------


    POTLOK:  cpu time    0.38: real time    0.39
    SETDIJ:  cpu time    0.05: real time    0.05
     EDDAV:  cpu time   39.96: real time   40.00
       DOS:  cpu time    0.00: real time    0.00
    CHARGE:  cpu time    1.31: real time    1.31
    MIXING:  cpu time    0.01: real time    0.01
    --------------------------------------------
      LOOP:  cpu time   41.72: real time   41.76

 eigenvalue-minimisations  :  6920
 total energy-change (2. order) : 0.7583338E+01  (-0.6486329E+01)
 number of electron     348.9998636 magnetization      55.9131449
 augmentation part      185.7539280 magnetization      46.8760477

 Broyden mixing:
  rms(total) = 0.76887E+01    rms(broyden)= 0.76884E+01
  rms(prec ) = 0.10205E+02
  weight for this iteration     100.00

 eigenvalues of (default mixing * dielectric matrix)
  average eigenvalue GAMMA=   0.3317
  0.5646  0.5646  0.1137  0.0842

 Free energy of the ion-electron system (eV)
  ---------------------------------------------------
  alpha Z        PSCENC =       533.70227597
  Ewald energy   TEWEN  =    165959.03047758
  -Hartree energ DENC   =   -194918.81338920
  -exchange      EXHF   =         0.00000000
  -V(xc)+E(xc)   XCENC  =       667.55093008
  PAW double counting   =     31612.55151104   -33472.08923324
  entropy T*S    EENTRO =         0.03633623
  eigenvalues    EBANDS =      -963.75702304
  atomic energy  EATOM  =     30241.87372392
  Solvation contrib.  Ediel  =         0.00000000
  ---------------------------------------------------
  free energy    TOTEN  =      -339.91439067 eV

  energy without entropy =     -339.95072690  energy(sigma->0) =     -339.92347472


--------------------------------------------------------------------------------------------------------




----------------------------------------- Iteration    1(  10)  ---------------------------------------


    POTLOK:  cpu time    0.38: real time    0.38
    SETDIJ:  cpu time    0.05: real time    0.05
     EDDAV:  cpu time   33.58: real time   33.62
       DOS:  cpu time    0.00: real time    0.00
    CHARGE:  cpu time    1.39: real time    1.39
    MIXING:  cpu time    0.01: real time    0.01
    --------------------------------------------
      LOOP:  cpu time   35.41: real time   35.46

 eigenvalue-minimisations  :  5616
 total energy-change (2. order) :-0.4392046E+02  (-0.7846853E+01)
 number of electron     348.9998582 magnetization      54.5443643
 augmentation part      186.2583174 magnetization      46.1042963

 Broyden mixing:
  rms(total) = 0.11663E+02    rms(broyden)= 0.11663E+02
  rms(prec ) = 0.14653E+02
  weight for this iteration     100.00

 eigenvalues of (default mixing * dielectric matrix)
  average eigenvalue GAMMA=   0.3691
  0.7745  0.7745  0.1168  0.1168  0.0631

 Free energy of the ion-electron system (eV)
  ---------------------------------------------------
  alpha Z        PSCENC =       533.70227597
  Ewald energy   TEWEN  =    165959.03047758
  -Hartree energ DENC   =   -194942.90057690
  -exchange      EXHF   =         0.00000000
  -V(xc)+E(xc)   XCENC  =       668.18496423
  PAW double counting   =     31993.10069788   -33868.05686208
  entropy T*S    EENTRO =        -0.02627859
  eigenvalues    EBANDS =      -968.74327210
  atomic energy  EATOM  =     30241.87372392
  Solvation contrib.  Ediel  =         0.00000000
  ---------------------------------------------------
  free energy    TOTEN  =      -383.83485009 eV

  energy without entropy =     -383.80857151  energy(sigma->0) =     -383.82828044


--------------------------------------------------------------------------------------------------------




----------------------------------------- Iteration    1(  11)  ---------------------------------------


    POTLOK:  cpu time    0.38: real time    0.38
    SETDIJ:  cpu time    0.05: real time    0.05
     EDDAV:  cpu time   33.24: real time   33.28
       DOS:  cpu time    0.00: real time    0.00
    CHARGE:  cpu time    1.55: real time    1.56
    MIXING:  cpu time    0.01: real time    0.01
    --------------------------------------------
      LOOP:  cpu time   35.24: real time   35.28

 eigenvalue-minimisations  :  5600
 total energy-change (2. order) : 0.6565759E+02  (-0.4737862E+01)
 number of electron     348.9998689 magnetization      54.2960434
 augmentation part      186.7263709 magnetization      42.3657359

 Broyden mixing:
  rms(total) = 0.69526E+01    rms(broyden)= 0.69523E+01
  rms(prec ) = 0.78964E+01
  weight for this iteration     100.00

 eigenvalues of (default mixing * dielectric matrix)
  average eigenvalue GAMMA=   0.3359
  0.7860  0.7860  0.1369  0.1369  0.1122  0.0573

 Free energy of the ion-electron system (eV)
  ---------------------------------------------------
  alpha Z        PSCENC =       533.70227597
  Ewald energy   TEWEN  =    165959.03047758
  -Hartree energ DENC   =   -194923.60641922
  -exchange      EXHF   =         0.00000000
  -V(xc)+E(xc)   XCENC  =       670.71046463
  PAW double counting   =     32683.31443193   -34582.58526045
  entropy T*S    EENTRO =        -0.03115212
  eigenvalues    EBANDS =      -900.58580228
  atomic energy  EATOM  =     30241.87372392
  Solvation contrib.  Ediel  =         0.00000000
  ---------------------------------------------------
  free energy    TOTEN  =      -318.17726004 eV

  energy without entropy =     -318.14610792  energy(sigma->0) =     -318.16947201


--------------------------------------------------------------------------------------------------------




----------------------------------------- Iteration    1(  12)  ---------------------------------------


    POTLOK:  cpu time    0.39: real time    0.39
    SETDIJ:  cpu time    0.06: real time    0.05
     EDDAV:  cpu time   32.46: real time   32.50
       DOS:  cpu time    0.00: real time    0.00
    CHARGE:  cpu time    1.34: real time    1.34
    MIXING:  cpu time    0.01: real time    0.01
    --------------------------------------------
      LOOP:  cpu time   34.26: real time   34.30

 eigenvalue-minimisations  :  5424
 total energy-change (2. order) : 0.2259463E+02  (-0.2222511E+01)
 number of electron     348.9998682 magnetization      54.1686351
 augmentation part      185.6456347 magnetization      41.5629140

 Broyden mixing:
  rms(total) = 0.38266E+01    rms(broyden)= 0.38263E+01
  rms(prec ) = 0.42782E+01
  weight for this iteration     100.00

 eigenvalues of (default mixing * dielectric matrix)
  average eigenvalue GAMMA=   0.3383
  1.0596  0.4466  0.4466  0.1427  0.1186  0.0945  0.0597

 Free energy of the ion-electron system (eV)
  ---------------------------------------------------
  alpha Z        PSCENC =       533.70227597
  Ewald energy   TEWEN  =    165959.03047758
  -Hartree energ DENC   =   -194936.45965169
  -exchange      EXHF   =         0.00000000
  -V(xc)+E(xc)   XCENC  =       671.72343561
  PAW double counting   =     32861.75683233   -34767.05615571
  entropy T*S    EENTRO =        -0.03321303
  eigenvalues    EBANDS =      -860.12035947
  atomic energy  EATOM  =     30241.87372392
  Solvation contrib.  Ediel  =         0.00000000
  ---------------------------------------------------
  free energy    TOTEN  =      -295.58263451 eV

  energy without entropy =     -295.54942147  energy(sigma->0) =     -295.57433125


--------------------------------------------------------------------------------------------------------




----------------------------------------- Iteration    1(  13)  ---------------------------------------


    POTLOK:  cpu time    0.39: real time    0.39
    SETDIJ:  cpu time    0.05: real time    0.05
     EDDAV:  cpu time   32.01: real time   32.05
       DOS:  cpu time    0.00: real time    0.00
    CHARGE:  cpu time    1.31: real time    1.31
    MIXING:  cpu time    0.01: real time    0.01
    --------------------------------------------
      LOOP:  cpu time   33.77: real time   33.82

 eigenvalue-minimisations  :  5256
 total energy-change (2. order) : 0.1743554E+00  (-0.1178303E+01)
 number of electron     348.9998715 magnetization      54.2895817
 augmentation part      185.0086952 magnetization      42.2670906

 Broyden mixing:
  rms(total) = 0.30778E+01    rms(broyden)= 0.30777E+01
  rms(prec ) = 0.35946E+01
  weight for this iteration     100.00

 eigenvalues of (default mixing * dielectric matrix)
  average eigenvalue GAMMA=   0.3481
  1.1392  0.4387  0.4387  0.3696  0.1235  0.1235  0.0931  0.0588

 Free energy of the ion-electron system (eV)
  ---------------------------------------------------
  alpha Z        PSCENC =       533.70227597
  Ewald energy   TEWEN  =    165959.03047758
  -Hartree energ DENC   =   -194978.85069729
  -exchange      EXHF   =         0.00000000
  -V(xc)+E(xc)   XCENC  =       672.69977141
  PAW double counting   =     33172.24100960   -35084.80490792
  entropy T*S    EENTRO =         0.05573484
  eigenvalues    EBANDS =      -811.35566723
  atomic energy  EATOM  =     30241.87372392
  Solvation contrib.  Ediel  =         0.00000000
  ---------------------------------------------------
  free energy    TOTEN  =      -295.40827912 eV

  energy without entropy =     -295.46401396  energy(sigma->0) =     -295.42221283


--------------------------------------------------------------------------------------------------------




----------------------------------------- Iteration    1(  14)  ---------------------------------------


    POTLOK:  cpu time    0.38: real time    0.38
    SETDIJ:  cpu time    0.05: real time    0.05
     EDDAV:  cpu time   32.67: real time   32.71
       DOS:  cpu time    0.00: real time    0.00
    CHARGE:  cpu time    1.29: real time    1.29
    MIXING:  cpu time    0.01: real time    0.01
    --------------------------------------------
      LOOP:  cpu time   34.41: real time   34.45

 eigenvalue-minimisations  :  5488
 total energy-change (2. order) :-0.1122439E+01  (-0.8533265E+00)
 number of electron     348.9998661 magnetization      54.4079225
 augmentation part      184.7027306 magnetization      43.4378448

 Broyden mixing:
  rms(total) = 0.29702E+01    rms(broyden)= 0.29700E+01
  rms(prec ) = 0.32076E+01
  weight for this iteration     100.00

 eigenvalues of (default mixing * dielectric matrix)
  average eigenvalue GAMMA=   0.3736
  1.2416  0.5610  0.5610  0.4824  0.0589  0.1298  0.1298  0.0990  0.0990

 Free energy of the ion-electron system (eV)
  ---------------------------------------------------
  alpha Z        PSCENC =       533.70227597
  Ewald energy   TEWEN  =    165959.03047758
  -Hartree energ DENC   =   -194999.18948367
  -exchange      EXHF   =         0.00000000
  -V(xc)+E(xc)   XCENC  =       673.10983706
  PAW double counting   =     33256.32453981   -35169.09670621
  entropy T*S    EENTRO =        -0.03629892
  eigenvalues    EBANDS =      -792.24908320
  atomic energy  EATOM  =     30241.87372392
  Solvation contrib.  Ediel  =         0.00000000
  ---------------------------------------------------
  free energy    TOTEN  =      -296.53071766 eV

  energy without entropy =     -296.49441874  energy(sigma->0) =     -296.52164293


--------------------------------------------------------------------------------------------------------




----------------------------------------- Iteration    1(  15)  ---------------------------------------


    POTLOK:  cpu time    0.38: real time    0.39
    SETDIJ:  cpu time    0.05: real time    0.05
     EDDAV:  cpu time   31.97: real time   32.00
       DOS:  cpu time    0.00: real time    0.00
    CHARGE:  cpu time    1.26: real time    1.25
    MIXING:  cpu time    0.01: real time    0.01
    --------------------------------------------
      LOOP:  cpu time   33.67: real time   33.71

 eigenvalue-minimisations  :  5360
 total energy-change (2. order) : 0.1327959E+01  (-0.5153670E+00)
 number of electron     348.9998658 magnetization      54.5140532
 augmentation part      184.9317238 magnetization      44.2800030

 Broyden mixing:
  rms(total) = 0.16848E+01    rms(broyden)= 0.16847E+01
  rms(prec ) = 0.17878E+01
  weight for this iteration     100.00

 eigenvalues of (default mixing * dielectric matrix)
  average eigenvalue GAMMA=   0.3916
  1.3027  0.6507  0.6507  0.4031  0.4031  0.0589  0.1266  0.1266  0.0970  0.0970

 Free energy of the ion-electron system (eV)
  ---------------------------------------------------
  alpha Z        PSCENC =       533.70227597
  Ewald energy   TEWEN  =    165959.03047758
  -Hartree energ DENC   =   -194997.61953700
  -exchange      EXHF   =         0.00000000
  -V(xc)+E(xc)   XCENC  =       672.80629515
  PAW double counting   =     33413.34825059   -35324.73113349
  entropy T*S    EENTRO =        -0.00986206
  eigenvalues    EBANDS =      -793.60324915
  atomic energy  EATOM  =     30241.87372392
  Solvation contrib.  Ediel  =         0.00000000
  ---------------------------------------------------
  free energy    TOTEN  =      -295.20275850 eV

  energy without entropy =     -295.19289644  energy(sigma->0) =     -295.20029298


--------------------------------------------------------------------------------------------------------




----------------------------------------- Iteration    1(  16)  ---------------------------------------


    POTLOK:  cpu time    0.39: real time    0.39
    SETDIJ:  cpu time    0.05: real time    0.05
     EDDAV:  cpu time   32.54: real time   32.57
       DOS:  cpu time    0.00: real time    0.00
    CHARGE:  cpu time    1.62: real time    1.62
    MIXING:  cpu time    0.02: real time    0.02
    --------------------------------------------
      LOOP:  cpu time   34.62: real time   34.66

 eigenvalue-minimisations  :  5328
 total energy-change (2. order) :-0.1595534E+01  (-0.3352787E+00)
 number of electron     348.9998664 magnetization      54.6284545
 augmentation part      185.1501317 magnetization      44.8300240

 Broyden mixing:
  rms(total) = 0.19539E+01    rms(broyden)= 0.19538E+01
  rms(prec ) = 0.20680E+01
  weight for this iteration     100.00

 eigenvalues of (default mixing * dielectric matrix)
  average eigenvalue GAMMA=   0.4040
  1.3594  0.7439  0.7439  0.4793  0.4793  0.0589  0.1285  0.1285  0.1217  0.1001
  0.1001

 Free energy of the ion-electron system (eV)
  ---------------------------------------------------
  alpha Z        PSCENC =       533.70227597
  Ewald energy   TEWEN  =    165959.03047758
  -Hartree energ DENC   =   -194996.97365241
  -exchange      EXHF   =         0.00000000
  -V(xc)+E(xc)   XCENC  =       672.71413709
  PAW double counting   =     33485.82680959   -35396.36750440
  entropy T*S    EENTRO =         0.00379454
  eigenvalues    EBANDS =      -796.60835472
  atomic energy  EATOM  =     30241.87372392
  Solvation contrib.  Ediel  =         0.00000000
  ---------------------------------------------------
  free energy    TOTEN  =      -296.79829285 eV

  energy without entropy =     -296.80208739  energy(sigma->0) =     -296.79924149


--------------------------------------------------------------------------------------------------------




----------------------------------------- Iteration    1(  17)  ---------------------------------------


    POTLOK:  cpu time    0.44: real time    0.44
    SETDIJ:  cpu time    0.06: real time    0.06
     EDDAV:  cpu time   31.67: real time   31.71
       DOS:  cpu time    0.00: real time    0.00
    CHARGE:  cpu time    1.28: real time    1.29
    MIXING:  cpu time    0.02: real time    0.02
    --------------------------------------------
      LOOP:  cpu time   33.48: real time   33.51

 eigenvalue-minimisations  :  5064
 total energy-change (2. order) :-0.1114909E+01  (-0.2275582E+00)
 number of electron     348.9998694 magnetization      54.8104904
 augmentation part      185.3775395 magnetization      45.6755342

 Broyden mixing:
  rms(total) = 0.16728E+01    rms(broyden)= 0.16727E+01
  rms(prec ) = 0.18714E+01
  weight for this iteration     100.00

 eigenvalues of (default mixing * dielectric matrix)
  average eigenvalue GAMMA=   0.4407
  1.4320  0.9065  0.9065  0.4938  0.4938  0.4214  0.0589  0.1263  0.1263  0.1289
  0.0971  0.0971

 Free energy of the ion-electron system (eV)
  ---------------------------------------------------
  alpha Z        PSCENC =       533.70227597
  Ewald energy   TEWEN  =    165959.03047758
  -Hartree energ DENC   =   -194990.68673441
  -exchange      EXHF   =         0.00000000
  -V(xc)+E(xc)   XCENC  =       672.44463538
  PAW double counting   =     33585.80744630   -35495.76781223
  entropy T*S    EENTRO =        -0.00056220
  eigenvalues    EBANDS =      -804.31665209
  atomic energy  EATOM  =     30241.87372392
  Solvation contrib.  Ediel  =         0.00000000
  ---------------------------------------------------
  free energy    TOTEN  =      -297.91320179 eV

  energy without entropy =     -297.91263959  energy(sigma->0) =     -297.91306124


--------------------------------------------------------------------------------------------------------




----------------------------------------- Iteration    1(  18)  ---------------------------------------


    POTLOK:  cpu time    0.38: real time    0.38
    SETDIJ:  cpu time    0.05: real time    0.05
     EDDAV:  cpu time   30.88: real time   30.92
       DOS:  cpu time    0.00: real time    0.00
    CHARGE:  cpu time    1.30: real time    1.30
    MIXING:  cpu time    0.02: real time    0.02
    --------------------------------------------
      LOOP:  cpu time   32.63: real time   32.67

 eigenvalue-minimisations  :  5104
 total energy-change (2. order) :-0.1965257E+01  (-0.2471643E+00)
 number of electron     348.9998675 magnetization      55.0417242
 augmentation part      185.7340291 magnetization      46.6250067

 Broyden mixing:
  rms(total) = 0.18483E+01    rms(broyden)= 0.18482E+01
  rms(prec ) = 0.20219E+01
  weight for this iteration     100.00

 eigenvalues of (default mixing * dielectric matrix)
  average eigenvalue GAMMA=   0.4552
  1.5396  1.0087  1.0087  0.5432  0.5432  0.4924  0.0589  0.1505  0.1280  0.1280
  0.0979  0.0979  0.1203

 Free energy of the ion-electron system (eV)
  ---------------------------------------------------
  alpha Z        PSCENC =       533.70227597
  Ewald energy   TEWEN  =    165959.03047758
  -Hartree energ DENC   =   -194998.27788011
  -exchange      EXHF   =         0.00000000
  -V(xc)+E(xc)   XCENC  =       672.60755632
  PAW double counting   =     33701.62900171   -35610.81596546
  entropy T*S    EENTRO =         0.00513295
  eigenvalues    EBANDS =      -799.63278197
  atomic energy  EATOM  =     30241.87372392
  Solvation contrib.  Ediel  =         0.00000000
  ---------------------------------------------------
  free energy    TOTEN  =      -299.87845909 eV

  energy without entropy =     -299.88359204  energy(sigma->0) =     -299.87974233


--------------------------------------------------------------------------------------------------------




----------------------------------------- Iteration    1(  19)  ---------------------------------------


    POTLOK:  cpu time    0.40: real time    0.40
    SETDIJ:  cpu time    0.05: real time    0.05
     EDDAV:  cpu time   31.79: real time   31.83
       DOS:  cpu time    0.00: real time    0.00
    CHARGE:  cpu time    1.36: real time    1.37
    MIXING:  cpu time    0.02: real time    0.02
    --------------------------------------------
      LOOP:  cpu time   33.64: real time   33.67

 eigenvalue-minimisations  :  5296
 total energy-change (2. order) :-0.2714855E+00  (-0.2876129E+00)
 number of electron     348.9998665 magnetization      55.3571333
 augmentation part      186.0719728 magnetization      47.9685542

 Broyden mixing:
  rms(total) = 0.11135E+01    rms(broyden)= 0.11135E+01
  rms(prec ) = 0.12365E+01
  weight for this iteration     100.00

 eigenvalues of (default mixing * dielectric matrix)
  average eigenvalue GAMMA=   0.4864
  1.6417  1.0329  1.0329  0.6689  0.6689  0.5856  0.4146  0.0589  0.1384  0.1267
  0.1267  0.0975  0.0975  0.1178

 Free energy of the ion-electron system (eV)
  ---------------------------------------------------
  alpha Z        PSCENC =       533.70227597
  Ewald energy   TEWEN  =    165959.03047758
  -Hartree energ DENC   =   -195006.64510062
  -exchange      EXHF   =         0.00000000
  -V(xc)+E(xc)   XCENC  =       673.26584902
  PAW double counting   =     33820.42312993   -35728.60270828
  entropy T*S    EENTRO =         0.00479246
  eigenvalues    EBANDS =      -793.20238459
  atomic energy  EATOM  =     30241.87372392
  Solvation contrib.  Ediel  =         0.00000000
  ---------------------------------------------------
  free energy    TOTEN  =      -300.14994461 eV

  energy without entropy =     -300.15473707  energy(sigma->0) =     -300.15114273


--------------------------------------------------------------------------------------------------------




----------------------------------------- Iteration    1(  20)  ---------------------------------------


    POTLOK:  cpu time    0.38: real time    0.39
    SETDIJ:  cpu time    0.05: real time    0.05
     EDDAV:  cpu time   34.57: real time   34.62
       DOS:  cpu time    0.00: real time    0.00
    CHARGE:  cpu time    1.25: real time    1.25
    MIXING:  cpu time    0.02: real time    0.02
    --------------------------------------------
      LOOP:  cpu time   36.28: real time   36.32

 eigenvalue-minimisations  :  5864
 total energy-change (2. order) :-0.7474997E+00  (-0.1749563E+00)
 number of electron     348.9998638 magnetization      55.4568862
 augmentation part      186.2047686 magnetization      48.8895539

 Broyden mixing:
  rms(total) = 0.10227E+01    rms(broyden)= 0.10226E+01
  rms(prec ) = 0.10870E+01
  weight for this iteration     100.00

 eigenvalues of (default mixing * dielectric matrix)
  average eigenvalue GAMMA=   0.4664
  1.6387  1.0235  1.0235  0.7056  0.7056  0.6014  0.4021  0.0589  0.1502  0.0977
  0.0977  0.1279  0.1279  0.1179  0.1179

 Free energy of the ion-electron system (eV)
  ---------------------------------------------------
  alpha Z        PSCENC =       533.70227597
[...]
     28     Co          0.005          0.011          0.997
     29     Co         -0.014         -0.009          0.998
     30     Co         -0.023         -0.006          1.017
     31     Co          0.049          0.054          0.946
     32     Co         -0.016         -0.007          1.002
     33     Co          0.053          0.054          0.941
     34     Co          0.048          0.051          0.958
     35     Co          0.012          0.012          0.981
     36     Co         -0.011          0.003          1.023
     37     C          -0.144         -0.119          0.838
     38     C           0.067          0.046          0.646
     39     C          -0.146         -0.119          0.839
     40     O          -0.229         -0.174          0.956
     41     H           0.049          0.031          0.845
     42     H           0.047          0.032          0.831
     43     H           0.060          0.047          0.715
     44     H           0.058          0.040          0.770
     45     H           0.047          0.032          0.825
     46     H           0.061          0.047          0.716
     47     H           0.046          0.031          0.844

  dDsC method for vdW energy calculation
  ---------------------------------------------------------------------------------------------

  Parameters of vdW forcefield:
            C6dDsC            XDM            ALPHAts        RELVOL
            (au)              (au)            (au)                
   ---------------------------------------------------------------
   Co        434.962         10.228         50.821          1.016
   Co        449.268         10.319         52.031          1.041
   Co        434.792         10.228         50.805          1.016
   Co        424.622         10.171         49.894          0.998
   Co        428.928         10.194         50.283          1.006
   Co        419.541         10.133         49.480          0.990
   Co        430.618         10.200         50.450          1.009
   Co        431.056         10.198         50.514          1.010
   Co        432.766         10.214         50.637          1.013
   Co        292.645          7.652         45.705          0.914
   Co        287.866          7.644         45.007          0.900
   Co        284.854          7.638         44.570          0.891
   Co        287.417          7.646         44.921          0.898
   Co        288.402          7.645         45.082          0.902
   Co        289.246          7.653         45.170          0.903
   Co        288.378          7.651         45.047          0.901
   Co        286.992          7.639         44.898          0.898
   Co        289.394          7.644         45.246          0.905
   Co        280.511          7.556         44.367          0.887
   Co        281.609          7.539         44.639          0.893
   Co        285.484          7.568         45.078          0.902
   Co        284.166          7.632         44.495          0.890
   Co        284.298          7.565         44.908          0.898
   Co        281.308          7.561         44.465          0.889
   Co        282.868          7.563         44.696          0.894
   Co        287.801          7.557         45.514          0.910
   Co        284.115          7.565         44.885          0.898
   Co        420.570         10.078         49.872          0.997
   Co        424.140         10.158         49.897          0.998
   Co        433.643         10.191         50.850          1.017
   Co        372.560          9.415         47.289          0.946
   Co        425.134         10.143         50.091          1.002
   Co        372.419          9.457         47.063          0.941
   Co        382.209          9.537         47.893          0.958
   Co        410.545         10.000         49.062          0.981
   Co        439.307         10.260         51.169          1.023
   C          46.725          5.552         10.058          0.838
   C          30.728          4.738          7.750          0.646
   C          46.822          5.556         10.071          0.839
   O          25.920          5.997          5.165          0.956
   H           7.486          2.353          3.802          0.845
   H           7.239          2.313          3.741          0.831
   H           4.467          1.659          3.219          0.715
   H           5.635          1.943          3.466          0.770
   H           7.184          2.312          3.713          0.825
   H           4.487          1.664          3.222          0.716
   H           7.305          2.298          3.798          0.844

  IVDW =   4
  VDW_RADIUS =    50.000 A
  VDW_S6 aka ATT0 =    13.960
  VDW_SR aka BTT0 =     1.320
  LVDW_ONECELL = F F F

  Number of pair interactions contributing to vdW energy:  494486
  Edisp (eV):   -8.97857
    FORVDW:  cpu time   18.80: real time   18.84

  FORCE on cell =-STRESS in cart. coord.  units (eV):
  Direction    XX          YY          ZZ          XY          YZ          ZX
  --------------------------------------------------------------------------------------
  Alpha Z   533.70228   533.70228   533.70228
  Ewald  184074.06874184135.33701************   171.45671   -64.13879    76.65136
  Hartree191237.07314191285.93513************   132.64276   -48.63592    57.33554
  E(xc)   -1758.05342 -1758.03340 -1759.49033     0.04918    -0.01939     0.02168
  Local  ************************382415.07065  -306.99123   113.88088  -135.09727
  n-local  -241.45755  -241.26395  -262.97582     0.53127    -0.15020     0.20685
  augment  5611.01229  5611.02161  5605.04922     0.17963     0.00082     0.09091
  Kinetic  3119.92007  3120.47455  3117.33230     2.22621    -0.92986     0.85794
  Fock        0.00000     0.00000     0.00000     0.00000     0.00000     0.00000
  vdW       -10.90161   -10.97164    -7.69374    -0.13500     0.03077    -0.03393
  -------------------------------------------------------------------------------------
  Total     -18.67139   -18.66069   -11.46365    -0.04048     0.03831     0.03307
  in kB     -25.46966   -25.45506   -15.63758    -0.05521     0.05226     0.04512
  external pressure =      -22.19 kB  Pullay stress =        0.00 kB


 VOLUME and BASIS-vectors are now :
 -----------------------------------------------------------------------------
  energy-cutoff  :      400.00
  volume of cell :     1174.53
      direct lattice vectors                 reciprocal lattice vectors
     7.410000000  0.000000000  0.000000000     0.134952767  0.077914995  0.000000000
    -3.705000000  6.417250000  0.000000000     0.000000000  0.155829989  0.000000000
     0.000000000  0.000000000 24.700000000     0.000000000  0.000000000  0.040485830

  length of vectors
     7.410000000  7.410001522 24.700000000     0.155830021  0.155829989  0.040485830


 FORCES acting on ions
    electron-ion (+dipol)            ewald-force                    non-local-force                 convergence-correction
 -----------------------------------------------------------------------------------------------
   0.218E-01 -.348E-01 0.292E+04   -.291E-01 0.436E-01 -.292E+04   0.139E-01 0.862E-02 -.119E+01   0.576E-02 -.903E-02 -.351E-01
   -.197E-01 0.252E-01 0.292E+04   0.340E-01 -.266E-01 -.292E+04   -.184E-02 0.529E-03 -.114E+01   -.144E-01 0.122E-02 -.357E-01
   -.538E-02 -.859E-01 0.292E+04   -.378E-02 0.899E-01 -.292E+04   -.138E-01 0.693E-02 -.119E+01   0.868E-02 -.250E-02 -.319E-01
   0.515E-01 -.326E-01 0.292E+04   -.547E-01 0.320E-01 -.292E+04   0.727E-03 -.156E-02 -.117E+01   0.154E-02 0.247E-02 -.268E-01
   0.523E-01 0.409E-02 0.292E+04   -.598E-01 -.396E-02 -.292E+04   0.317E-03 -.172E-01 -.119E+01   0.454E-02 0.112E-02 -.312E-01
   -.108E+00 -.641E-02 0.292E+04   0.116E+00 -.801E-02 -.292E+04   -.239E-02 -.170E-01 -.119E+01   -.610E-02 0.157E-01 -.309E-01
   0.848E-01 0.408E-01 0.292E+04   -.884E-01 -.359E-01 -.292E+04   -.129E-01 0.828E-02 -.119E+01   0.190E-02 -.696E-02 -.268E-01
   -.383E-01 0.712E-02 0.292E+04   0.263E-01 -.244E-02 -.292E+04   -.134E-02 0.329E-03 -.122E+01   0.118E-01 -.487E-02 -.286E-01
   -.498E-01 0.815E-01 0.292E+04   0.631E-01 -.877E-01 -.292E+04   0.140E-01 0.101E-01 -.119E+01   -.137E-01 0.289E-02 -.299E-01
   0.167E+00 -.110E+01 0.113E+04   -.174E+00 0.109E+01 -.113E+04   0.370E-03 0.295E-01 -.517E+00   0.254E-02 -.670E-02 -.119E-01
   0.662E+00 0.822E+00 0.113E+04   -.675E+00 -.827E+00 -.113E+04   0.980E-03 0.170E-02 -.467E+00   -.946E-02 -.982E-02 -.257E-01
   -.620E+00 0.371E+00 0.113E+04   0.634E+00 -.375E+00 -.113E+04   -.138E-02 0.876E-03 -.466E+00   0.694E-02 -.767E-02 -.106E-01
   0.156E+01 -.776E+00 0.113E+04   -.155E+01 0.762E+00 -.113E+04   -.316E-01 0.169E-01 -.374E+00   0.222E-03 0.545E-02 -.138E-01
   -.362E+00 -.838E+00 0.113E+04   0.367E+00 0.849E+00 -.113E+04   -.718E-03 -.259E-02 -.465E+00   -.505E-02 0.136E-01 -.228E-01
   -.942E+00 -.865E+00 0.113E+04   0.918E+00 0.847E+00 -.113E+04   0.330E-01 0.190E-01 -.380E+00   0.484E-02 0.540E-02 -.981E-02
   0.354E+00 0.138E+01 0.113E+04   -.352E+00 -.136E+01 -.113E+04   -.968E-03 -.386E-01 -.379E+00   -.309E-02 -.275E-02 -.146E-01
   0.106E+01 0.409E+00 0.113E+04   -.106E+01 -.399E+00 -.113E+04   -.242E-01 -.141E-01 -.517E+00   0.388E-02 -.257E-02 -.135E-01
   -.127E+01 0.663E+00 0.113E+04   0.125E+01 -.661E+00 -.113E+04   0.268E-01 -.140E-01 -.523E+00   -.779E-03 0.508E-02 -.244E-01
   -.239E+01 0.648E+01 -.660E+03   0.241E+01 -.626E+01 0.660E+03   0.351E-03 -.228E+00 0.164E+00   -.174E-01 0.676E-02 0.156E-01
   -.659E+00 0.386E+00 -.660E+03   0.662E+00 -.380E+00 0.659E+03   -.361E-02 -.128E-02 0.653E+00   0.388E-02 -.321E-02 0.872E-02
   0.287E+01 0.425E+01 -.661E+03   -.288E+01 -.402E+01 0.661E+03   -.492E-02 -.230E+00 0.176E+00   0.135E-01 0.143E-02 0.228E-01
   0.186E+01 -.174E+01 -.665E+03   -.186E+01 0.176E+01 0.665E+03   -.670E-02 -.483E-02 0.146E+00   0.261E-02 -.788E-02 0.249E-01
   -.673E+01 -.141E+01 -.659E+03   0.656E+01 0.128E+01 0.659E+03   0.190E+00 0.111E+00 0.155E+00   -.154E-01 0.882E-02 0.854E-02
   0.444E+01 -.163E+01 -.664E+03   -.425E+01 0.151E+01 0.664E+03   -.206E+00 0.109E+00 0.188E+00   0.130E-01 0.364E-02 0.134E-01
   -.222E+01 -.438E+01 -.662E+03   0.202E+01 0.427E+01 0.661E+03   0.192E+00 0.119E+00 0.180E+00   0.796E-02 -.772E-02 0.109E-01
   -.150E+01 0.871E+00 -.649E+03   0.151E+01 -.882E+00 0.648E+03   -.381E-02 0.807E-03 0.568E+00   -.571E-02 0.652E-02 0.518E-02
   0.355E+01 -.291E+01 -.665E+03   -.335E+01 0.279E+01 0.665E+03   -.195E+00 0.128E+00 0.188E+00   -.222E-02 -.896E-02 0.807E-02
   -.332E+01 0.427E+02 -.250E+04   0.333E+01 -.433E+02 0.249E+04   0.929E-02 0.639E+00 0.178E+01   -.911E-02 0.198E-01 -.126E-01
   -.793E+01 0.640E+01 -.253E+04   0.786E+01 -.646E+01 0.253E+04   0.847E-01 0.635E-01 0.105E+01   -.911E-02 -.396E-02 -.159E-02
   0.111E+02 -.330E+01 -.252E+04   -.111E+02 0.324E+01 0.252E+04   -.892E-01 0.587E-01 0.105E+01   0.186E-01 0.795E-03 -.198E-02
   -.110E+03 0.646E+02 -.240E+04   0.112E+03 -.658E+02 0.240E+04   -.213E+01 0.127E+01 0.200E+01   -.232E-01 0.540E-02 -.718E-02
   -.791E+01 0.471E+01 -.252E+04   0.793E+01 -.461E+01 0.252E+04   -.253E-01 -.990E-01 0.107E+01   0.489E-02 0.468E-02 -.134E-03
   0.118E+03 0.519E+02 -.242E+04   -.121E+03 -.531E+02 0.242E+04   0.220E+01 0.120E+01 0.204E+01   0.184E-01 -.268E-02 -.342E-02
   0.136E+02 -.132E+03 -.243E+04   -.137E+02 0.134E+03 0.243E+04   0.383E-01 -.250E+01 0.197E+01   0.860E-03 -.188E-01 -.276E-02
   -.365E+02 -.203E+02 -.250E+04   0.371E+02 0.207E+02 0.249E+04   -.550E+00 -.343E+00 0.181E+01   -.121E-01 0.107E-02 -.106E-01
   0.236E+02 -.157E+02 -.252E+04   -.241E+02 0.160E+02 0.252E+04   0.499E+00 -.282E+00 0.158E+01   0.114E-01 -.464E-02 -.522E-02
   -.105E+03 -.545E+02 -.128E+04   0.105E+03 0.546E+02 0.128E+04   -.482E+00 -.131E+00 0.443E+00   -.221E-02 -.935E-03 -.718E-02
   0.476E+02 -.425E+02 -.136E+04   -.477E+02 0.426E+02 0.137E+04   0.117E+00 -.178E+00 -.645E+01   -.591E-03 -.823E-03 -.103E-01
   0.394E+02 0.110E+03 -.128E+04   -.396E+02 -.110E+03 0.128E+04   0.164E+00 0.458E+00 0.431E+00   0.867E-04 0.180E-02 -.834E-02
   0.300E+02 -.239E+02 -.198E+04   -.309E+02 0.242E+02 0.197E+04   0.804E+00 -.302E+00 0.142E+02   -.370E-02 -.526E-02 -.183E-01
   -.222E+02 -.572E+02 -.309E+03   0.232E+02 0.623E+02 0.307E+03   -.105E+01 -.499E+01 0.206E+01   -.416E-03 -.302E-03 -.181E-02
   -.580E+02 0.287E+02 -.310E+03   0.620E+02 -.320E+02 0.308E+03   -.399E+01 0.336E+01 0.172E+01   -.807E-03 0.808E-04 -.174E-02
   -.141E+02 -.106E+02 -.327E+03   0.143E+02 0.109E+02 0.332E+03   -.229E+00 -.312E+00 -.546E+01   -.356E-03 -.210E-03 -.105E-02
   0.534E+02 -.469E+02 -.338E+03   -.575E+02 0.504E+02 0.340E+03   0.406E+01 -.355E+01 -.163E+01   0.615E-03 -.741E-03 -.234E-02
   -.359E+02 0.537E+02 -.309E+03   0.397E+02 -.572E+02 0.307E+03   -.377E+01 0.352E+01 0.184E+01   -.443E-03 0.724E-03 -.201E-02
   0.654E+01 0.151E+02 -.326E+03   -.662E+01 -.153E+02 0.332E+03   0.718E-01 0.252E+00 -.547E+01   0.117E-03 0.324E-03 -.114E-02
   0.559E+02 0.291E+02 -.309E+03   -.608E+02 -.309E+02 0.308E+03   0.490E+01 0.169E+01 0.190E+01   0.450E-03 0.425E-03 -.235E-02
 -----------------------------------------------------------------------------------------------
   -.587E+00 0.187E+00 -.496E+01   -.782E-13 -.298E-12 -.995E-11   0.586E+00 -.186E+00 0.559E+01   -.641E-02 -.386E-02 -.408E+00
 
 
 POSITION                                       TOTAL-FORCE (eV/Angst)
 -----------------------------------------------------------------------------------
      1.23500      0.71303      0.00000         0.012274      0.008577      0.462637
      3.70500      0.71303      0.00000        -0.002024      0.000610      0.478689
      6.17500      0.71303      0.00000        -0.014299      0.008603      0.464721
     -0.00000      2.85211      0.00000        -0.000942      0.000544      0.502089
      2.47000      2.85211      0.00000        -0.002645     -0.015655      0.462630
      4.94000      2.85211      0.00000        -0.000998     -0.015542      0.461798
      1.23500      4.99118      0.00000        -0.014576      0.006346      0.463960
      3.70500      4.99118      0.00000        -0.001594      0.000229      0.467735
     -1.23500      4.99118      0.00000         0.013561      0.006784      0.461311
      0.00000      0.00000      2.01675        -0.002959      0.015548     -0.480836
      2.47000      0.00000      2.01675        -0.021578     -0.013445     -0.484549
      4.94000      0.00000      2.01675         0.019108     -0.011604     -0.478518
      1.23500      2.13908      2.01675        -0.020966      0.008028     -0.436093
      3.70500      2.13908      2.01675        -0.000059      0.021635     -0.481375
      6.17500      2.13908      2.01675         0.014036      0.006425     -0.434658
      0.00000      4.27816      2.01675        -0.001500     -0.019783     -0.434004
      2.47000      4.27816      2.01675        -0.016486     -0.006884     -0.482931
      4.94000      4.27816      2.01675         0.011359     -0.006836     -0.476765
      1.23006      0.71925      4.06080         0.002124      0.001711      0.000097
      3.69943      0.71235      4.05294         0.002947      0.002226     -0.002718
      6.17130      0.72001      4.06186        -0.001075      0.002444      0.001938
     -0.00615      2.85064      4.08002        -0.001051      0.002428     -0.002630
      2.45730      2.84833      4.05973         0.002095     -0.002257     -0.003754
      4.94217      2.84928      4.06120        -0.000881     -0.001006      0.005446
      1.22395      4.98615      4.06155         0.001648      0.001328      0.000520
      3.70061      4.99091      4.04327         0.005382     -0.002948     -0.000815
     -1.23268      4.98704      4.06197        -0.001274      0.002210      0.003814
      3.70178      6.38821      5.98369         0.005948     -0.004610     -0.000601
      2.47167      0.00131      5.98838         0.002709     -0.000118      0.000536
      4.93072      0.00293      5.98475        -0.001746      0.000517     -0.001743
      1.27084      2.11416      6.05710         0.000925      0.005924     -0.002923
      3.70175      2.13210      5.98440        -0.001245      0.001126      0.004166
      6.13323      2.11778      6.06390         0.001639     -0.001544      0.001094
     -0.00168      4.32188      6.06284         0.003516     -0.005792      0.005660
      2.49154      4.29123      5.98304         0.003617      0.004705      0.001698
      4.91302      4.29155      5.98399         0.004901      0.003217     -0.003591
      1.39156      3.34226      9.31906        -0.001402      0.000221     -0.003533
      0.03868      2.83733      8.85638         0.007667     -0.002478     -0.006671
     -0.27268      1.43335      9.33629         0.003361     -0.007174     -0.002794
      0.00509      2.85080      7.40417        -0.002372     -0.000978     -0.001133
      1.59347      4.34267      8.90614        -0.003037      0.000686     -0.004591
      2.18476      2.65951      8.97535        -0.002103      0.002913     -0.003289
      1.42368      3.39966     10.41716         0.000174      0.002435     -0.007521
     -0.75641      3.53258      9.17707        -0.004649      0.001046     -0.001650
      0.49342      0.73275      8.96623         0.000023      0.003056     -0.000857
     -0.28345      1.39705     10.43565         0.000655     -0.001015     -0.007013
      6.15742      1.10481      8.95894         0.001795     -0.001854     -0.002986
 -----------------------------------------------------------------------------------
    total drift:                               -0.007081     -0.003778      0.221685


--------------------------------------------------------------------------------------------------------



  FREE ENERGIE OF THE ION-ELECTRON SYSTEM (eV)
  ---------------------------------------------------
  free  energy   TOTEN  =      -310.25492185 eV

  energy  without entropy=     -310.27489983  energy(sigma->0) =     -310.25991634
 


--------------------------------------------------------------------------------------------------------


    POTLOK:  cpu time    0.41: real time    0.41


--------------------------------------------------------------------------------------------------------


 stress matrix after NEB project (eV)
    -18.67139     -0.04048      0.03307
     -0.04048    -18.66069      0.03831
      0.03307      0.03831    -11.46365
  FORCES: max atom, RMS     0.010461    0.004373
  FORCE total and by dimension    0.029979    0.007667
  Stress total and by dimension   28.779605   18.671389


--------------------------------------------------------------------------------------------------------


  
 reached required accuracy - stopping structural energy minimisation
     LOOP+:  cpu time 2136.74: real time 2139.46
    4ORBIT:  cpu time    0.00: real time    0.00

 total amount of memory used by VASP on root node   182263. kBytes
========================================================================

   base      :      30000. kBytes
   nonlr-proj:       9730. kBytes
   fftplans  :       6203. kBytes
   grid      :      28885. kBytes
   one-center:       1461. kBytes
   wavefun   :     105984. kBytes
 
  
  
 General timing and accounting informations for this job:
 ========================================================
  
                  Total CPU time used (sec):     2143.792
                            User time (sec):     2142.200
                          System time (sec):        1.592
                         Elapsed time (sec):     2147.751
  
                   Maximum memory used (kb):      226136.
                   Average memory used (kb):           0.
  
                          Minor page faults:       260836
                          Major page faults:           65
                 Voluntary context switches:         1155
