 vasp.5.3.5 31Mar14 (build Jan 31 2018 16:04:57) complex                        
  
 executed on             LinuxIFC date 2018.12.29  17:44:52
 running on    8 total cores
 distrk:  each k-point on    8 cores,    1 groups
 distr:  one band on NCORES_PER_BAND=   1 cores,    8 groups


--------------------------------------------------------------------------------------------------------


 INCAR:
 POTCAR:    PAW_PBE Co 02Aug2007                  
 POTCAR:    PAW_PBE C 08Apr2002                   
 POTCAR:    PAW_PBE O 08Apr2002                   
 POTCAR:    PAW_PBE H 15Jun2001                   

 ----------------------------------------------------------------------------- 
|                                                                             |
|           W    W    AA    RRRRR   N    N  II  N    N   GGGG   !!!           |
|           W    W   A  A   R    R  NN   N  II  NN   N  G    G  !!!           |
|           W    W  A    A  R    R  N N  N  II  N N  N  G       !!!           |
|           W WW W  AAAAAA  RRRRR   N  N N  II  N  N N  G  GGG   !            |
|           WW  WW  A    A  R   R   N   NN  II  N   NN  G    G                |
|           W    W  A    A  R    R  N    N  II  N    N   GGGG   !!!           |
|                                                                             |
|      For optimal performance we recommend to set                            |
|        NCORE= 4 - approx SQRT( number of cores)                             |
|      NCORE specifies how many cores store one orbital (NPAR=cpu/NCORE).     |
|      This setting can  greatly improve the performance of VASP for DFT.     |
|      The default, NPAR=number of cores might be grossly inefficient         |
|      on modern multi-core architectures or massively parallel machines.     |
|      Do your own testing !!!!                                               |
|      Unfortunately you need to use the default for GW and RPA calculations. |
|      (for HF NCORE is supported but not extensively tested yet)             |
|                                                                             |
 ----------------------------------------------------------------------------- 

 POTCAR:    PAW_PBE Co 02Aug2007                  
   VRHFIN =Co: d8 s1                                                            
   LEXCH  = PE                                                                  
   EATOM  =   813.3670 eV,   59.7808 Ry                                         
                                                                                
   TITEL  = PAW_PBE Co 02Aug2007                                                
   LULTRA =        F    use ultrasoft PP ?                                      
   IUNSCR =        1    unscreen: 0-lin 1-nonlin 2-no                           
   RPACOR =    2.000    partial core radius                                     
   POMASS =   58.933; ZVAL   =    9.000    mass and valenz                      
   RCORE  =    2.300    outmost cutoff radius                                   
   RWIGS  =    2.460; RWIGS  =    1.302    wigner-seitz radius (au A)           
   ENMAX  =  267.968; ENMIN  =  200.976 eV                                      
   RCLOC  =    1.203    cutoff for local pot                                    
   LCOR   =        T    correct aug charges                                     
   LPAW   =        T    paw PP                                                  
   EAUG   =  477.818                                                            
   DEXC   =    0.000                                                            
   RMAX   =    2.360    core radius for proj-oper                               
   RAUG   =    1.300    factor for augmentation sphere                          
   RDEP   =    2.393    radius for radial grids                                 
   RDEPT  =    1.864    core radius for aug-charge                              
                                                                                
   Atomic configuration                                                         
    9 entries                                                                   
     n  l   j            E        occ.                                          
     1  0  0.50     -7587.6674   2.0000                                         
     2  0  0.50      -893.6084   2.0000                                         
     2  1  1.50      -764.5805   6.0000                                         
     3  0  0.50       -97.5973   2.0000                                         
     3  1  1.50       -60.9648   6.0000                                         
     3  2  2.50        -4.2382   8.0000                                         
     4  0  0.50        -4.3746   1.0000                                         
     4  1  1.50        -4.0817   0.0000                                         
     4  3  2.50        -1.3606   0.0000                                         
   Description                                                                  
     l       E           TYP  RCUT    TYP  RCUT                                 
     2     -4.2382362     23  2.300                                             
     2     -5.5988188     23  2.300                                             
     0     -4.3745797     23  2.300                                             
     0      5.7660125     23  2.300                                             
     1     -2.7211652     23  2.300                                             
     1     16.9860234     23  2.300                                             
  local pseudopotential read in
  partial core-charges read in
  partial kinetic energy density read in
  atomic valenz-charges read in
  non local Contribution for L=           2  read in
    real space projection operators read in
  non local Contribution for L=           2  read in
    real space projection operators read in
  non local Contribution for L=           0  read in
    real space projection operators read in
  non local Contribution for L=           0  read in
    real space projection operators read in
  non local Contribution for L=           1  read in
    real space projection operators read in
  non local Contribution for L=           1  read in
    real space projection operators read in
    PAW grid and wavefunctions read in
 
   number of l-projection  operators is LMAX  =           6
   number of lm-projection operators is LMMAX =          18
 
 POTCAR:    PAW_PBE C 08Apr2002                   
   VRHFIN =C: s2p2                                                              
   LEXCH  = PE                                                                  
   EATOM  =   147.1560 eV,   10.8157 Ry                                         
                                                                                
   TITEL  = PAW_PBE C 08Apr2002                                                 
   LULTRA =        F    use ultrasoft PP ?                                      
   IUNSCR =        1    unscreen: 0-lin 1-nonlin 2-no                           
   RPACOR =    1.200    partial core radius                                     
   POMASS =   12.011; ZVAL   =    4.000    mass and valenz                      
   RCORE  =    1.500    outmost cutoff radius                                   
   RWIGS  =    1.630; RWIGS  =    0.863    wigner-seitz radius (au A)           
   ENMAX  =  400.000; ENMIN  =  300.000 eV                                      
   ICORE  =        2    local potential                                         
   LCOR   =        T    correct aug charges                                     
   LPAW   =        T    paw PP                                                  
   EAUG   =  644.873                                                            
   DEXC   =    0.000                                                            
   RMAX   =    1.529    core radius for proj-oper                               
   RAUG   =    1.300    factor for augmentation sphere                          
   RDEP   =    1.501    radius for radial grids                                 
   RDEPT  =    1.300    core radius for aug-charge                              
                                                                                
   Atomic configuration                                                         
    4 entries                                                                   
     n  l   j            E        occ.                                          
     1  0  0.50      -273.3789   2.0000                                         
     2  0  0.50       -13.7508   2.0000                                         
     2  1  0.50        -5.2854   2.0000                                         
     3  2  1.50        -5.4423   0.0000                                         
   Description                                                                  
     l       E           TYP  RCUT    TYP  RCUT                                 
     0    -13.7508458     23  1.200                                             
     0     -8.2022199     23  1.200                                             
     1     -5.2854383     23  1.500                                             
     1     34.0145650     23  1.500                                             
     2     -5.4423304      7  1.500                                             
  local pseudopotential read in
  partial core-charges read in
  partial kinetic energy density read in
  atomic valenz-charges read in
  non local Contribution for L=           0  read in
    real space projection operators read in
  non local Contribution for L=           0  read in
    real space projection operators read in
  non local Contribution for L=           1  read in
    real space projection operators read in
  non local Contribution for L=           1  read in
    real space projection operators read in
    PAW grid and wavefunctions read in
 
   number of l-projection  operators is LMAX  =           4
   number of lm-projection operators is LMMAX =           8
 
 POTCAR:    PAW_PBE O 08Apr2002                   
   VRHFIN =O: s2p4                                                              
   LEXCH  = PE                                                                  
   EATOM  =   432.3788 eV,   31.7789 Ry                                         
                                                                                
   TITEL  = PAW_PBE O 08Apr2002                                                 
   LULTRA =        F    use ultrasoft PP ?                                      
   IUNSCR =        1    unscreen: 0-lin 1-nonlin 2-no                           
   RPACOR =    1.200    partial core radius                                     
   POMASS =   16.000; ZVAL   =    6.000    mass and valenz                      
   RCORE  =    1.520    outmost cutoff radius                                   
   RWIGS  =    1.550; RWIGS  =    0.820    wigner-seitz radius (au A)           
   ENMAX  =  400.000; ENMIN  =  300.000 eV                                      
   ICORE  =        2    local potential                                         
   LCOR   =        T    correct aug charges                                     
   LPAW   =        T    paw PP                                                  
   EAUG   =  605.392                                                            
   DEXC   =    0.000                                                            
   RMAX   =    1.553    core radius for proj-oper                               
   RAUG   =    1.300    factor for augmentation sphere                          
   RDEP   =    1.550    radius for radial grids                                 
   RDEPT  =    1.329    core radius for aug-charge                              
                                                                                
   Atomic configuration                                                         
    4 entries                                                                   
     n  l   j            E        occ.                                          
     1  0  0.50      -514.6923   2.0000                                         
     2  0  0.50       -23.9615   2.0000                                         
     2  1  0.50        -9.0305   4.0000                                         
     3  2  1.50        -9.5241   0.0000                                         
   Description                                                                  
     l       E           TYP  RCUT    TYP  RCUT                                 
     0    -23.9615318     23  1.200                                             
     0     -9.5240782     23  1.200                                             
     1     -9.0304911     23  1.520                                             
     1      8.1634956     23  1.520                                             
     2     -9.5240782      7  1.500                                             
  local pseudopotential read in
  partial core-charges read in
  partial kinetic energy density read in
  kinetic energy density of atom read in
  atomic valenz-charges read in
  non local Contribution for L=           0  read in
    real space projection operators read in
  non local Contribution for L=           0  read in
    real space projection operators read in
  non local Contribution for L=           1  read in
    real space projection operators read in
  non local Contribution for L=           1  read in
    real space projection operators read in
    PAW grid and wavefunctions read in
 
   number of l-projection  operators is LMAX  =           4
   number of lm-projection operators is LMMAX =           8
 
 POTCAR:    PAW_PBE H 15Jun2001                   
   VRHFIN =H: ultrasoft test                                                    
   LEXCH  = PE                                                                  
   EATOM  =    12.4884 eV,    0.9179 Ry                                         
                                                                                
   TITEL  = PAW_PBE H 15Jun2001                                                 
   LULTRA =        F    use ultrasoft PP ?                                      
   IUNSCR =        0    unscreen: 0-lin 1-nonlin 2-no                           
   RPACOR =    0.000    partial core radius                                     
   POMASS =    1.000; ZVAL   =    1.000    mass and valenz                      
   RCORE  =    1.100    outmost cutoff radius                                   
   RWIGS  =    0.700; RWIGS  =    0.370    wigner-seitz radius (au A)           
   ENMAX  =  250.000; ENMIN  =  200.000 eV                                      
   RCLOC  =    0.701    cutoff for local pot                                    
   LCOR   =        T    correct aug charges                                     
   LPAW   =        T    paw PP                                                  
   EAUG   =  400.000                                                            
   RMAX   =    1.123    core radius for proj-oper                               
   RAUG   =    1.200    factor for augmentation sphere                          
   RDEP   =    1.112    radius for radial grids                                 
   RDEPT  =    0.926    core radius for aug-charge                              
                                                                                
   Atomic configuration                                                         
    2 entries                                                                   
     n  l   j            E        occ.                                          
     1  0  0.50        -6.4927   1.0000                                         
     2  1  0.50        -3.4015   0.0000                                         
   Description                                                                  
     l       E           TYP  RCUT    TYP  RCUT                                 
     0     -6.4927494     23  1.100                                             
     0      6.8029130     23  1.100                                             
     1     -4.0817478     23  1.100                                             
  local pseudopotential read in
  atomic valenz-charges read in
  non local Contribution for L=           0  read in
    real space projection operators read in
  non local Contribution for L=           0  read in
    real space projection operators read in
  non local Contribution for L=           1  read in
    real space projection operators read in
    PAW grid and wavefunctions read in
 
   number of l-projection  operators is LMAX  =           3
   number of lm-projection operators is LMMAX =           5
 
 Optimization of the real space projectors (new method)

 maximal supplied QI-value         = 16.25
 optimisation between [QCUT,QGAM] = [ 10.24, 20.48] = [ 29.35,117.42] Ry 
 Optimized for a Real-space Cutoff    1.34 Angstroem

   l    n(q)    QCUT    max X(q) W(low)/X(q) W(high)/X(q)  e(spline) 
   2      7    10.239    65.824    0.41E-03    0.10E-02    0.11E-06
   2      7    10.239    61.429    0.41E-03    0.10E-02    0.11E-06
   0      8    10.239    56.174    0.42E-03    0.17E-03    0.96E-07
   0      8    10.239    31.263    0.38E-03    0.16E-03    0.87E-07
   1      8    10.239    19.828    0.20E-03    0.56E-03    0.13E-06
   1      8    10.239    15.139    0.15E-03    0.46E-03    0.11E-06
 Optimization of the real space projectors (new method)

 maximal supplied QI-value         = 25.13
 optimisation between [QCUT,QGAM] = [ 10.05, 20.36] = [ 28.30,116.06] Ry 
 Optimized for a Real-space Cutoff    1.30 Angstroem

   l    n(q)    QCUT    max X(q) W(low)/X(q) W(high)/X(q)  e(spline) 
   0      8    10.053   115.676    0.49E-03    0.72E-03    0.18E-06
   0      8    10.053    87.132    0.49E-03    0.71E-03    0.18E-06
   1      7    10.053     4.429    0.32E-03    0.31E-03    0.18E-06
   1      7    10.053     2.733    0.23E-03    0.19E-03    0.20E-06
 Optimization of the real space projectors (new method)

 maximal supplied QI-value         = 24.76
 optimisation between [QCUT,QGAM] = [ 10.15, 20.30] = [ 28.85,115.39] Ry 
 Optimized for a Real-space Cutoff    1.38 Angstroem

   l    n(q)    QCUT    max X(q) W(low)/X(q) W(high)/X(q)  e(spline) 
   0      8    10.150    20.381    0.22E-03    0.32E-03    0.29E-06
   0      8    10.150    15.268    0.23E-03    0.35E-03    0.30E-06
   1      8    10.150     5.964    0.46E-03    0.53E-03    0.21E-06
   1      8    10.150     5.382    0.38E-03    0.45E-03    0.19E-06
 Optimization of the real space projectors (new method)

 maximal supplied QI-value         = 34.20
 optimisation between [QCUT,QGAM] = [  9.92, 20.18] = [ 27.55,114.04] Ry 
 Optimized for a Real-space Cutoff    1.26 Angstroem

   l    n(q)    QCUT    max X(q) W(low)/X(q) W(high)/X(q)  e(spline) 
   0      8     9.919    19.460    0.50E-03    0.23E-03    0.29E-06
   0      8     9.919    12.209    0.48E-03    0.23E-03    0.28E-06
   1      7     9.919     4.655    0.17E-03    0.75E-03    0.30E-06
  PAW_PBE Co 02Aug2007                  :
 energy of atom  1       EATOM= -813.3670
 kinetic energy error for atom=    0.0093 (will be added to EATOM!!)
  PAW_PBE C 08Apr2002                   :
 energy of atom  2       EATOM= -147.1560
 kinetic energy error for atom=    0.0288 (will be added to EATOM!!)
  PAW_PBE O 08Apr2002                   :
 energy of atom  3       EATOM= -432.3788
 kinetic energy error for atom=    0.1156 (will be added to EATOM!!)
  PAW_PBE H 15Jun2001                   :
 energy of atom  4       EATOM=  -12.4884
 kinetic energy error for atom=    0.0098 (will be added to EATOM!!)
 
 
 POSCAR: Co C O H                                
  positions in direct lattice
  velocities in cartesian coordinates
 exchange correlation table for  LEXCH =        8
   RHO(1)=    0.500       N(1)  =     2000
   RHO(2)=  100.500       N(2)  =     4000

 VTST: version 3.1, (03/28/14)

 CHAIN: initializing optimizer
 
 OPT: Using Conjugate-Gradient optimizer
 OPT: CG, Init
 OPT: CG, FDSTEP      0.005000
 OPT: CG, MAXMOVE      0.200000
 
 CHAIN: Read ICHAIN            2
 
 POSCAR: Co C O H                                
  positions in direct lattice
  velocities in cartesian coordinates
 CHAIN: Running the Dimer method

 Dimer: -----------------
 Dimer: Input Parameters
 Dimer:   Seed      0
 Dimer: RotMax      1
 Dimer:     dR      0.005000
 Dimer:  FNMax      1.000000
 Dimer:  FNMin      0.010000
 Dimer: -----------------
 


--------------------------------------------------------------------------------------------------------


 ion  position               nearest neighbor table
   1  0.500  0.500  0.000-  16 2.46  14 2.46   4 2.46   2 2.46  13 2.47   9 2.47  17 2.50
   2  0.667  0.750  0.000-   9 2.46  11 2.46   1 2.46   3 2.46  10 2.47  14 2.47  18 2.50
   3  0.500  0.000  0.000-  16 2.46  14 2.46   4 2.46   2 2.46  19 2.46  15 2.47  11 2.47
   4  0.667  0.250  0.000-   9 2.46  11 2.46   1 2.46   3 2.46  12 2.47  16 2.47  20 2.50
   5  0.000  0.500  0.000-  12 2.46  10 2.46   8 2.46   6 2.46   9 2.47  13 2.47  21 2.51
   6  0.167  0.750  0.000-  13 2.46  15 2.46   5 2.46   7 2.46  14 2.47  10 2.47  22 2.50
   7  0.000  0.000  0.000-  12 2.46  10 2.46   8 2.46   6 2.46  11 2.47  15 2.47  23 2.48
   8  0.167  0.250  0.000-  13 2.46  15 2.46   5 2.46   7 2.46  16 2.47  12 2.47  24 2.48
   9  0.750  0.500  0.056-  25 2.39   4 2.46   2 2.46  12 2.46  10 2.46   5 2.47   1 2.47  18 2.47
                            17 2.47  20 2.49  21 2.51
  10  0.917  0.750  0.056-  26 2.40   5 2.46   7 2.46   9 2.46  11 2.46   2 2.47   6 2.47  23 2.47
                            22 2.48  21 2.49  18 2.49
  11  0.750  0.000  0.056-  27 2.39  19 2.45   4 2.46   2 2.46  12 2.46  10 2.46   7 2.47   3 2.47
                            20 2.48  18 2.48  23 2.49
  12  0.917  0.250  0.056-  28 2.38   5 2.46   7 2.46   9 2.46  11 2.46  23 2.47   4 2.47   8 2.47
                            24 2.48  21 2.49  20 2.51
  13  0.250  0.500  0.056-  29 2.38  24 2.46   8 2.46   6 2.46  16 2.46  14 2.46   1 2.47   5 2.47
                            21 2.48  22 2.49  17 2.50
  14  0.417  0.750  0.056-  30 2.39  19 2.45   1 2.46   3 2.46  13 2.46  15 2.46   6 2.47   2 2.47
                            18 2.48  17 2.49  22 2.49
  15  0.250  0.000  0.056-  31 2.42   8 2.46   6 2.46  16 2.46  14 2.46  22 2.47  23 2.47   3 2.47
                             7 2.47  24 2.47  19 2.48
  16  0.417  0.250  0.056-  32 2.45   1 2.46   3 2.46  13 2.46  15 2.46  20 2.47   8 2.47   4 2.47
                            17 2.47  24 2.47  19 2.48
  17  0.502  0.499  0.112-  29 2.37  32 2.40  20 2.44  30 2.45  18 2.45  25 2.46   9 2.47  16 2.47
                            14 2.49  13 2.50   1 2.50
  18  0.666  0.749  0.112-  26 2.39  25 2.43  27 2.43  30 2.43  19 2.44  17 2.45   9 2.47  11 2.48
                            14 2.48  10 2.49   2 2.50
  19  0.502  0.998  0.111-  30 2.40  18 2.44  14 2.45  20 2.45  11 2.45   3 2.46  27 2.47  16 2.48
                            15 2.48  31 2.52  32 2.53
  20  0.664  0.249  0.112-  28 2.38  27 2.43  25 2.43  17 2.44  19 2.45  32 2.45  16 2.47  11 2.48
                             9 2.49   4 2.50  12 2.51
  21  0.002  0.500  0.113-  25 2.37  26 2.42  28 2.43  29 2.44  24 2.44  22 2.46  13 2.48  10 2.49
                            12 2.49   9 2.51   5 2.51
  22  0.166  0.751  0.113-  31 2.39  30 2.40  29 2.42  23 2.45  26 2.45  21 2.46  15 2.47  10 2.48
                            13 2.49  14 2.49   6 2.50
  23  0.001  0.001  0.112-  31 2.38  27 2.39  28 2.42  26 2.43  22 2.45  24 2.46  12 2.47  15 2.47
                            10 2.47   7 2.48  11 2.49
  24  0.167  0.251  0.112-  32 2.43  29 2.43  31 2.44  21 2.44  13 2.46  23 2.46  15 2.47  16 2.47
                            28 2.48  12 2.48   8 2.48
  25  0.757  0.500  0.163-  21 2.37   9 2.39  28 2.40  26 2.41  18 2.43  20 2.43  17 2.46
  26  0.912  0.750  0.163-  18 2.39  10 2.40  27 2.40  25 2.41  21 2.42  23 2.43  22 2.45
  27  0.757  0.999  0.163-  23 2.39  11 2.39  28 2.40  26 2.40  18 2.43  20 2.43  19 2.47
  28  0.910  0.249  0.163-  12 2.38  20 2.38  27 2.40  25 2.40  23 2.42  21 2.43  24 2.48
  29  0.257  0.501  0.163-  17 2.37  32 2.38  13 2.38  22 2.42  30 2.43  24 2.43  21 2.44
  30  0.414  0.753  0.163-  41 1.88  14 2.39  19 2.40  22 2.40  29 2.43  18 2.43  17 2.45  31 2.45

  31  0.243  0.998  0.165-  41 1.90  36 2.07  23 2.38  22 2.39  15 2.42  24 2.44  30 2.45  19 2.52
                            32 2.53
  32  0.413  0.256  0.166-  36 2.00  29 2.38  17 2.40  24 2.43  20 2.45  16 2.45  19 2.53  31 2.53

  33  0.190  0.186  0.302-  37 1.10  38 1.10  39 1.10  34 1.51
  34  0.346  0.099  0.296-  40 1.10  36 1.46  33 1.51  35 1.52
  35  0.479  0.187  0.328-  42 1.10  43 1.10  44 1.10  34 1.52
  36  0.386  0.090  0.232-  41 1.30  34 1.46  32 2.00  31 2.07
  37  0.155  0.192  0.350-  33 1.10
  38  0.098  0.120  0.277-  33 1.10
  39  0.197  0.314  0.285-  33 1.10
  40  0.336  0.968  0.311-  34 1.10
  41  0.433  0.955  0.206-  36 1.30  30 1.88  31 1.90
  42  0.589  0.121  0.320-  35 1.10
  43  0.457  0.192  0.376-  35 1.10
  44  0.490  0.315  0.310-  35 1.10
 
  LATTYP: Found a simple orthorhombic cell.
 ALAT       =     8.0199986100
 B/A-ratio  =     1.0673318421
 C/A-ratio  =     2.7718209293
  
  Lattice vectors:
  
 A1 = (   0.0000000000,  -8.0199986100,   0.0000000000)
 A2 = (  -8.5599998900,   0.0000000000,   0.0000000000)
 A3 = (   0.0000000000,   0.0000000000, -22.2300000000)


Analysis of symmetry for initial positions (statically):
=====================================================================
 Subroutine PRICEL returns:
 Original cell was already a primitive cell.
 

 Routine SETGRP: Setting up the symmetry group for a 
 simple orthorhombic supercell.


 Subroutine GETGRP returns: Found  1 space group operations
 (whereof  1 operations were pure point group operations)
 out of a pool of  8 trial point group operations.


The static configuration has the point symmetry C_1 .


Analysis of symmetry for dynamics (positions and initial velocities):
=====================================================================
 Subroutine PRICEL returns:
 Original cell was already a primitive cell.
 

 Routine SETGRP: Setting up the symmetry group for a 
 simple orthorhombic supercell.


 Subroutine GETGRP returns: Found  1 space group operations
 (whereof  1 operations were pure point group operations)
 out of a pool of  8 trial point group operations.


The dynamic configuration has the point symmetry C_1 .


Analysis of constrained symmetry for selective dynamics:
=====================================================================
 Subroutine PRICEL returns:
 Original cell was already a primitive cell.
 

 Routine SETGRP: Setting up the symmetry group for a 
 simple orthorhombic supercell.


 Subroutine GETGRP returns: Found  1 space group operations
 (whereof  1 operations were pure point group operations)
 out of a pool of  8 trial point group operations.


The constrained configuration has the point symmetry C_1 .


Analysis of magnetic symmetry:
=====================================================================
 Subroutine PRICEL returns:
 Original cell was already a primitive cell.
 

 Subroutine MAGSYM returns: Found  1 space group operations
 (whereof  1 operations were pure point group operations)
 out of a pool of  1 trial space group operations
 (whereof  1 operations were pure point group operations)
 and found also     1 'primitive' translations


The magnetic configuration has the point symmetry C_1 .
 
 
 KPOINTS:  Automatic mesh                         

Automatic generation of k-mesh.
Space group operators:
 irot       det(A)        alpha          n_x          n_y          n_z        tau_x        tau_y        tau_z
    1     1.000000     0.000000     1.000000     0.000000     0.000000     0.000000     0.000000     0.000000
 
 Subroutine IBZKPT returns following result:
 ===========================================
 
 Found      5 irreducible k-points:
 
 Following reciprocal coordinates:
            Coordinates               Weight
  0.000000  0.000000  0.000000      1.000000
  0.333333  0.000000  0.000000      2.000000
  0.000000  0.333333  0.000000      2.000000
  0.333333  0.333333  0.000000      2.000000
 -0.333333  0.333333  0.000000      2.000000
 
 Following cartesian coordinates:
            Coordinates               Weight
  0.000000  0.000000  0.000000      1.000000
  0.096184  0.000000  0.000000      2.000000
  0.000000  0.102660  0.000000      2.000000
  0.096184  0.102660  0.000000      2.000000
 -0.096184  0.102660  0.000000      2.000000
 


--------------------------------------------------------------------------------------------------------




 Dimension of arrays:
   k-points           NKPTS =      5   k-points in BZ     NKDIM =      5   number of bands    NBANDS=    216
   number of dos      NEDOS =    301   number of ions     NIONS =     44
   non local maximal  LDIM  =      6   non local SUM 2l+1 LMDIM =     18
   total plane-waves  NPLWV = 188160
   max r-space proj   IRMAX =   1408   max aug-charges    IRDMAX=   5061
   dimension x,y,z NGX =    42 NGY =   40 NGZ =  112
   dimension x,y,z NGXF=    84 NGYF=   80 NGZF=  224
   support grid    NGXF=    84 NGYF=   80 NGZF=  224
   ions per type =              32   3   1   8
 NGX,Y,Z   is equivalent  to a cutoff of   8.16,  8.29,  8.38 a.u.
 NGXF,Y,Z  is equivalent  to a cutoff of  16.31, 16.58, 16.75 a.u.


 I would recommend the setting:
   dimension x,y,z NGX =    42 NGY =   39 NGZ =  109
 SYSTEM =  unknown system                          
 POSCAR =  Co C O H                                

 Startparameter for this run:
   NWRITE =      2    write-flag & timer
   PREC   = normal    normal or accurate (medium, high low for compatibility)
   ISTART =      0    job   : 0-new  1-cont  2-samecut
   ICHARG =      2    charge: 1-file 2-atom 10-const
   ISPIN  =      2    spin polarized calculation?
   LNONCOLLINEAR =      F non collinear calculations
   LSORBIT =      F    spin-orbit coupling
   INIWAV =      1    electr: 0-lowe 1-rand  2-diag
   LASPH  =      F    aspherical Exc in radial PAW
   METAGGA=      F    non-selfconsistent MetaGGA calc.
   LSOL =      F    Solvation

 Electronic Relaxation 1
   ENCUT  =  400.0 eV  29.40 Ry    5.42 a.u.  13.96 13.08 36.25*2*pi/ulx,y,z
   ENINI  =  400.0     initial cutoff
   ENAUG  =  644.9 eV  augmentation charge cutoff
   NELM   =     60;   NELMIN=  2; NELMDL= -5     # of ELM steps 
   EDIFF  = 0.1E-05   stopping-criterion for ELM
   LREAL  =      T    real-space projection
   NLSPLINE    = F    spline interpolate recip. space projectors
   LCOMPAT=      F    compatible to vasp.4.4
   GGA_COMPAT  = T    GGA compatible to vasp.4.4-vasp.4.6
   LMAXPAW     = -100 max onsite density
   LMAXMIX     =    2 max onsite mixed and CHGCAR
   VOSKOWN=      0    Vosko Wilk Nusair interpolation
   ROPT   =   -0.00050  -0.00050  -0.00050  -0.00050
 Ionic relaxation
   EDIFFG = -.1E-01   stopping-criterion for IOM
   NSW    =    500    number of steps for IOM
   NBLOCK =      1;   KBLOCK =    500    inner block; outer block 
   IBRION =      3    ionic relax: 0-MD 1-quasi-New 2-CG
   NFREE  =      0    steps in history (QN), initial steepest desc. (CG)
   ISIF   =      2    stress and relaxation
   IWAVPR =     11    prediction:  0-non 1-charg 2-wave 3-comb
   ISYM   =      2    0-nonsym 1-usesym 2-fastsym
   LCORR  =      T    Harris-Foulkes like correction to forces

   POTIM  = 0.0000    time-step for ionic-motion
   TEIN   =    0.0    initial temperature
   TEBEG  =    0.0;   TEEND  =   0.0 temperature during run
   SMASS  =  -3.00    Nose mass-parameter (am)
   estimated Nose-frequenzy (Omega)   =  0.10E-29 period in steps =  0.00 mass=  -0.167E-26a.u.
   SCALEE = 1.0000    scale energy and forces
   NPACO  =    256;   APACO  = 16.0  distance and # of slots for P.C.
   PSTRESS=    0.0 pullay stress

  Mass of Ions in am
   POMASS =  58.93 12.01 16.00  1.00
  Ionic Valenz
   ZVAL   =   9.00  4.00  6.00  1.00
  Atomic Wigner-Seitz radii
   RWIGS  =  -1.00 -1.00 -1.00 -1.00
  virtual crystal weights 
   VCA    =   1.00  1.00  1.00  1.00
   NELECT =     314.0000    total number of electrons
   NUPDOWN=      -1.0000    fix difference up-down

 DOS related values:
   EMIN   =  10.00;   EMAX   =-10.00  energy-range for DOS
   EFERMI =   0.00
   ISMEAR =     2;   SIGMA  =   0.20  broadening in eV -4-tet -1-fermi 0-gaus

 Electronic relaxation 2 (details)
   IALGO  =     38    algorithm
   LDIAG  =      T    sub-space diagonalisation (order eigenvalues)
   LSUBROT=      F    optimize rotation matrix (better conditioning)
   TURBO    =      0    0=normal 1=particle mesh
   IRESTART =      0    0=no restart 2=restart with 2 vectors
   NREBOOT  =      0    no. of reboots
   NMIN     =      0    reboot dimension
   EREF     =   0.00    reference energy to select bands
   IMIX   =      4    mixing-type and parameters
     AMIX     =   0.40;   BMIX     =  1.00
     AMIX_MAG =   1.60;   BMIX_MAG =  1.00
     AMIN     =   0.10
     WC   =   100.;   INIMIX=   1;  MIXPRE=   1;  MAXMIX= -45

 Intra band minimization:
   WEIMIN = 0.0010     energy-eigenvalue tresh-hold
   EBREAK =  0.12E-08  absolut break condition
   DEPER  =   0.30     relativ break condition  

   TIME   =   0.40     timestep for ELM

  volume/ion in A,a.u.               =      34.68       234.06
  Fermi-wavevector in a.u.,A,eV,Ry     =   0.966471  1.826366 12.708745  0.934066
  Thomas-Fermi vector in A             =   2.096275
 
 Write flags
   LWAVE  =      F    write WAVECAR
   LCHARG =      F    write CHGCAR
   LVTOT  =      F    write LOCPOT, total local potential
   LVHAR  =      F    write LOCPOT, Hartree potential only
   LELF   =      F    write electronic localiz. function (ELF)
   LORBIT =      0    0 simple, 1 ext, 2 COOP (PROOUT)


 Dipole corrections
   LMONO  =      F    monopole corrections only (constant potential shift)
   LDIPOL =      F    correct potential (dipole corrections)
   IDIPOL =      3    1-x, 2-y, 3-z, 4-all directions 
   EPSILON=  1.0000000 bulk dielectric constant

 Exchange correlation treatment:
   GGA     =    PE    GGA type
   LEXCH   =     8    internal setting for exchange type
   VOSKOWN=      0    Vosko Wilk Nusair interpolation
   LHFCALC =     F    Hartree Fock is set to
   LHFONE  =     F    Hartree Fock one center treatment
   AEXX    =    0.0000 exact exchange contribution

 Linear response parameters
   LEPSILON=     F    determine dielectric tensor
   LRPA    =     F    only Hartree local field effects (RPA)
   LNABLA  =     F    use nabla operator in PAW spheres
   LVEL    =     F    velocity operator in full k-point grid
   LINTERFAST=   F  fast interpolation
   KINTER  =     0    interpolate to denser k-point grid
   CSHIFT  =0.1000    complex shift for real part using Kramers Kronig
   OMEGAMAX=  -1.0    maximum frequency
   DEG_THRESHOLD= 0.2000000E-02 threshold for treating states as degnerate
   RTIME   =    0.100 relaxation time in fs

 Orbital magnetization related:
   ORBITALMAG=     F  switch on orbital magnetization
   LCHIMAG   =     F  perturbation theory with respect to B field
   DQ        =  0.001000  dq finite difference perturbation B field



--------------------------------------------------------------------------------------------------------


 quickmin algorithm: (dynamic with friction)
   using selective dynamics as specified on POSCAR
 charge density and potential will be updated during run
 spin polarized calculation
 Variant of blocked Davidson
 Davidson routine will perform the subspace rotation
 perform sub-space diagonalisation
    after iterative eigenvector-optimisation
 modified Broyden-mixing scheme, WC =      100.0
 initial mixing is a Kerker type mixing with AMIX =  0.4000 and BMIX =      1.0000
 Hartree-type preconditioning will be used
 using additional bands           59
 real space projection scheme for non local part
 use partial core corrections
 calculate Harris-corrections to forces 
   (improved forces if not selfconsistent)
 use gradient corrections 
 use of overlap-Matrix (Vanderbilt PP)
 Methfessel and Paxton  Order N= 2 SIGMA  =   0.20


--------------------------------------------------------------------------------------------------------


  energy-cutoff  :      400.00
  volume of cell :     1526.12
      direct lattice vectors                 reciprocal lattice vectors
     8.559999890  0.000000000  0.000000000     0.116822431  0.000000000  0.000000000
     0.000000000  8.019998610  0.000000000     0.000000000  0.124688301  0.000000000
     0.000000000  0.000000000 22.230000000     0.000000000  0.000000000  0.044984256

  length of vectors
     8.559999890  8.019998610 22.230000000     0.116822431  0.124688301  0.044984256


 
 k-points in units of 2pi/SCALE and weight:  Automatic mesh                         
   0.00000000  0.00000000  0.00000000       0.111
   0.09618380  0.00000000  0.00000000       0.222
   0.00000000  0.10266003  0.00000000       0.222
   0.09618380  0.10266003  0.00000000       0.222
  -0.09618380  0.10266003  0.00000000       0.222
 
 k-points in reciprocal lattice and weights:  Automatic mesh                         
   0.00000000  0.00000000  0.00000000       0.111
   0.33333333  0.00000000  0.00000000       0.222
   0.00000000  0.33333333  0.00000000       0.222
   0.33333333  0.33333333  0.00000000       0.222
  -0.33333333  0.33333333  0.00000000       0.222
 
 position of ions in fractional coordinates (direct lattice) 
   0.49999899  0.49999954  0.00000000
   0.66670668  0.74999931  0.00000000
   0.49999899  0.00000000  0.00000000
   0.66670668  0.25000008  0.00000000
   0.00000000  0.49999954  0.00000000
   0.16670567  0.74999931  0.00000000
   0.00000000  0.00000000  0.00000000
   0.16670567  0.25000008  0.00000000
   0.74999993  0.49999954  0.05555556
   0.91670473  0.74999931  0.05555556
   0.74999993  0.00000000  0.05555556
   0.91670473  0.25000008  0.05555556
   0.25000007  0.49999954  0.05555556
   0.41670574  0.74999931  0.05555556
   0.25000007  0.00000000  0.05555556
   0.41670574  0.25000008  0.05555556
   0.50176426  0.49896176  0.11239338
   0.66611913  0.74935895  0.11230223
   0.50191222  0.99762614  0.11080689
   0.66391900  0.24940831  0.11246013
   0.00222632  0.50008331  0.11313195
   0.16607622  0.75135235  0.11253349
   0.00105941  0.00065260  0.11168212
   0.16694369  0.25120439  0.11151539
   0.75697270  0.49965119  0.16301967
   0.91195029  0.75042748  0.16327807
   0.75650055  0.99924883  0.16311959
   0.91004873  0.24892998  0.16270444
   0.25703822  0.50139415  0.16268184
   0.41403022  0.75337245  0.16296523
   0.24314227  0.99825069  0.16454310
   0.41329532  0.25622098  0.16594653
   0.18958425  0.18625464  0.30240489
   0.34557724  0.09899392  0.29568070
   0.47868119  0.18668814  0.32769869
   0.38605346  0.09014101  0.23209275
   0.15469769  0.19164167  0.34998580
   0.09806822  0.12040404  0.27692577
   0.19729842  0.31449119  0.28483613
   0.33606602  0.96848341  0.31097289
   0.43260133  0.95452973  0.20576297
   0.58945536  0.12098879  0.31981924
   0.45677706  0.19213093  0.37640072
   0.49026701  0.31479409  0.31048946
 
 position of ions in cartesian coordinates  (Angst):
   4.27999130  4.00999560  0.00000000
   5.70700910  6.01499340  0.00000000
   4.27999130  0.00000000  0.00000000
   5.70700910  2.00500027  0.00000000
   0.00000000  4.00999560  0.00000000
   1.42700051  6.01499340  0.00000000
   0.00000000  0.00000000  0.00000000
   1.42700051  2.00500027  0.00000000
   6.41999930  4.00999560  1.23500000
   7.84699240  6.01499340  1.23500000
   6.41999930  0.00000000  1.23500000
   7.84699240  2.00500027  1.23500000
   2.14000059  4.00999560  1.23500000
   3.56700110  6.01499340  1.23500000
   2.14000059  0.00000000  1.23500000
   3.56700110  2.00500027  1.23500000
   4.29510202  4.00167262  2.49850474
   5.70197965  6.00985772  2.49647853
   4.29636851  8.00096029  2.46323709
   5.68314655  2.00025434  2.49998860
   0.01905726  4.01066749  2.51492326
   1.42161242  6.02584478  2.50161953
   0.00906858  0.00523386  2.48269361
   1.42903793  2.01465889  2.47898707
   6.47968625  4.00720184  3.62392718
   7.80629436  6.01842735  3.62967154
   6.47564466  8.01397421  3.62614855
   7.79001704  1.99641812  3.61691967
   2.20024710  4.02118038  3.61641732
   3.54409867  6.04204604  3.62271712
   2.08129781  8.00596911  3.65779322
   3.53780790  2.05489189  3.68899138
   1.62284114  1.49376199  6.72246064
   2.95814115  0.79393114  6.57298189
   4.09751091  1.49723859  7.28474197
   3.30461761  0.72293078  5.15942186
   1.32421220  1.53696591  7.78018428
   0.83946391  0.96564024  6.15605996
   1.68887448  2.52221891  6.33190728
   2.87672505  7.76723559  6.91292745
   3.70306731  7.65532714  4.57411077
   5.04573782  0.97032994  7.10958180
   3.91001154  1.54088976  8.36738791
   4.19668559  2.52464814  6.90218064
 


--------------------------------------------------------------------------------------------------------


 k-point  1 :   0.0000 0.0000 0.0000  plane waves:   27673
 k-point  2 :   0.3333 0.0000 0.0000  plane waves:   27720
 k-point  3 :   0.0000 0.3333 0.0000  plane waves:   27710
 k-point  4 :   0.3333 0.3333 0.0000  plane waves:   27742
 k-point  5 :  -0.3333 0.3333 0.0000  plane waves:   27742

 maximum and minimum number of plane-waves per node :     27742    27673

 maximum number of plane-waves:     27742
 maximum index in each direction: 
   IXMAX=   14   IYMAX=   13   IZMAX=   36
   IXMIN=  -14   IYMIN=  -13   IZMIN=  -36

 WARNING: aliasing errors must be expected set NGX to  58 to avoid them
 WARNING: aliasing errors must be expected set NGY to  54 to avoid them
 WARNING: aliasing errors must be expected set NGZ to 146 to avoid them
 aliasing errors are usually negligible using standard VASP settings
 and one can safely disregard these warnings

 serial   3D FFT for wavefunctions
 parallel 3D FFT for charge:
    minimum data exchange during FFTs selected (reduces bandwidth)


 total amount of memory used by VASP on root node   203390. kBytes
========================================================================

   base      :      30000. kBytes
   nonlr-proj:       7832. kBytes
   fftplans  :       7367. kBytes
   grid      :      34170. kBytes
   one-center:       1368. kBytes
   wavefun   :     122653. kBytes
 
     INWAV:  cpu time    0.00: real time    0.00
 Broyden mixing: mesh for mixing (old mesh)
   NGX = 27   NGY = 27   NGZ = 73
  (NGX  = 84   NGY  = 80   NGZ  =224)
  gives a total of  53217 points

 initial charge density was supplied:
 charge density of overlapping atoms calculated
 number of electron     314.0000000 magnetization      52.1600000
 keeping initial charge density in first step


--------------------------------------------------------------------------------------------------------


 Maximum index for non-local projection operator         1327
 Maximum index for augmentation-charges          778 (set IRDMAX)


--------------------------------------------------------------------------------------------------------


 First call to EWALD:  gamma=   0.154
 Maximum number of real-space cells 4x 4x 2
 Maximum number of reciprocal cells 2x 2x 5

 FEWALD executed in parallel
    FEWALD:  cpu time    0.00: real time    0.00


----------------------------------------- Iteration    1(   1)  ---------------------------------------


    POTLOK:  cpu time    0.45: real time    0.45
    SETDIJ:  cpu time    0.05: real time    0.05
     EDDAV:  cpu time   27.91: real time   27.93
       DOS:  cpu time    0.00: real time    0.00
    --------------------------------------------
      LOOP:  cpu time   28.41: real time   28.43

 eigenvalue-minimisations  :  4320
 total energy-change (2. order) : 0.2195811E+04  (-0.1104544E+05)
 number of electron     314.0000000 magnetization      52.1600000
 augmentation part      314.0000000 magnetization      52.1600000

 Free energy of the ion-electron system (eV)
  ---------------------------------------------------
  alpha Z        PSCENC =       331.32296425
  Ewald energy   TEWEN  =    105015.44491138
  -Hartree energ DENC   =   -130321.48400274
  -exchange      EXHF   =         0.00000000
  -V(xc)+E(xc)   XCENC  =       617.22451862
  PAW double counting   =     23751.99093977   -25451.76055144
  entropy T*S    EENTRO =         0.01066026
  eigenvalues    EBANDS =      1252.14063587
  atomic energy  EATOM  =     27000.92142019
  Solvation contrib.  Ediel  =         0.00000000
  ---------------------------------------------------
  free energy    TOTEN  =      2195.81149617 eV

  energy without entropy =     2195.80083591  energy(sigma->0) =     2195.80883110


--------------------------------------------------------------------------------------------------------




----------------------------------------- Iteration    1(   2)  ---------------------------------------


     EDDAV:  cpu time   28.43: real time   28.44
       DOS:  cpu time    0.00: real time    0.00
    --------------------------------------------
      LOOP:  cpu time   28.44: real time   28.44

 eigenvalue-minimisations  :  4392
 total energy-change (2. order) :-0.2244518E+04  (-0.2103268E+04)
 number of electron     314.0000000 magnetization      52.1600000
 augmentation part      314.0000000 magnetization      52.1600000

 Free energy of the ion-electron system (eV)
  ---------------------------------------------------
  alpha Z        PSCENC =       331.32296425
  Ewald energy   TEWEN  =    105015.44491138
  -Hartree energ DENC   =   -130321.48400274
  -exchange      EXHF   =         0.00000000
  -V(xc)+E(xc)   XCENC  =       617.22451862
  PAW double counting   =     23751.99093977   -25451.76055144
  entropy T*S    EENTRO =         0.00233954
  eigenvalues    EBANDS =      -992.36885819
  atomic energy  EATOM  =     27000.92142019
  Solvation contrib.  Ediel  =         0.00000000
  ---------------------------------------------------
  free energy    TOTEN  =       -48.70631861 eV

  energy without entropy =      -48.70865816  energy(sigma->0) =      -48.70690350


--------------------------------------------------------------------------------------------------------




----------------------------------------- Iteration    1(   3)  ---------------------------------------


     EDDAV:  cpu time   37.04: real time   37.05
       DOS:  cpu time    0.00: real time    0.00
    --------------------------------------------
      LOOP:  cpu time   37.05: real time   37.05

 eigenvalue-minimisations  :  5864
 total energy-change (2. order) :-0.2371073E+03  (-0.2168619E+03)
 number of electron     314.0000000 magnetization      52.1600000
 augmentation part      314.0000000 magnetization      52.1600000

 Free energy of the ion-electron system (eV)
  ---------------------------------------------------
  alpha Z        PSCENC =       331.32296425
  Ewald energy   TEWEN  =    105015.44491138
  -Hartree energ DENC   =   -130321.48400274
  -exchange      EXHF   =         0.00000000
  -V(xc)+E(xc)   XCENC  =       617.22451862
  PAW double counting   =     23751.99093977   -25451.76055144
  entropy T*S    EENTRO =        -0.03513293
  eigenvalues    EBANDS =     -1229.43865696
  atomic energy  EATOM  =     27000.92142019
  Solvation contrib.  Ediel  =         0.00000000
  ---------------------------------------------------
  free energy    TOTEN  =      -285.81358986 eV

  energy without entropy =     -285.77845693  energy(sigma->0) =     -285.80480663


--------------------------------------------------------------------------------------------------------




----------------------------------------- Iteration    1(   4)  ---------------------------------------


     EDDAV:  cpu time   34.11: real time   34.12
       DOS:  cpu time    0.00: real time    0.00
    --------------------------------------------
      LOOP:  cpu time   34.11: real time   34.12

 eigenvalue-minimisations  :  5280
 total energy-change (2. order) :-0.1691292E+02  (-0.1657541E+02)
 number of electron     314.0000000 magnetization      52.1600000
 augmentation part      314.0000000 magnetization      52.1600000

 Free energy of the ion-electron system (eV)
  ---------------------------------------------------
  alpha Z        PSCENC =       331.32296425
  Ewald energy   TEWEN  =    105015.44491138
  -Hartree energ DENC   =   -130321.48400274
  -exchange      EXHF   =         0.00000000
  -V(xc)+E(xc)   XCENC  =       617.22451862
  PAW double counting   =     23751.99093977   -25451.76055144
  entropy T*S    EENTRO =        -0.03194871
  eigenvalues    EBANDS =     -1246.35476522
  atomic energy  EATOM  =     27000.92142019
  Solvation contrib.  Ediel  =         0.00000000
  ---------------------------------------------------
  free energy    TOTEN  =      -302.72651390 eV

  energy without entropy =     -302.69456519  energy(sigma->0) =     -302.71852672


--------------------------------------------------------------------------------------------------------




----------------------------------------- Iteration    1(   5)  ---------------------------------------


     EDDAV:  cpu time   37.12: real time   37.12
       DOS:  cpu time    0.00: real time    0.00
    CHARGE:  cpu time    1.40: real time    1.40
    MIXING:  cpu time    0.01: real time    0.01
    --------------------------------------------
      LOOP:  cpu time   38.52: real time   38.53

 eigenvalue-minimisations  :  5872
 total energy-change (2. order) :-0.5371822E+00  (-0.5349663E+00)
 number of electron     314.0000726 magnetization      52.6692452
 augmentation part      150.6212638 magnetization      38.9138668

 Broyden mixing:
  rms(total) = 0.60604E+01    rms(broyden)= 0.60600E+01
  rms(prec ) = 0.63583E+01
  weight for this iteration     100.00

 Free energy of the ion-electron system (eV)
  ---------------------------------------------------
  alpha Z        PSCENC =       331.32296425
  Ewald energy   TEWEN  =    105015.44491138
  -Hartree energ DENC   =   -130321.48400274
  -exchange      EXHF   =         0.00000000
  -V(xc)+E(xc)   XCENC  =       617.22451862
  PAW double counting   =     23751.99093977   -25451.76055144
  entropy T*S    EENTRO =        -0.03259993
  eigenvalues    EBANDS =     -1246.89129615
  atomic energy  EATOM  =     27000.92142019
  Solvation contrib.  Ediel  =         0.00000000
  ---------------------------------------------------
  free energy    TOTEN  =      -303.26369605 eV

  energy without entropy =     -303.23109612  energy(sigma->0) =     -303.25554607


--------------------------------------------------------------------------------------------------------




----------------------------------------- Iteration    1(   6)  ---------------------------------------


    POTLOK:  cpu time    0.45: real time    0.45
    SETDIJ:  cpu time    0.05: real time    0.05
     EDDAV:  cpu time   33.90: real time   33.91
       DOS:  cpu time    0.00: real time    0.00
    CHARGE:  cpu time    1.38: real time    1.39
    MIXING:  cpu time    0.01: real time    0.01
    --------------------------------------------
      LOOP:  cpu time   35.80: real time   35.80

 eigenvalue-minimisations  :  5296
 total energy-change (2. order) :-0.5550816E+02  (-0.3359107E+02)
 number of electron     314.0000610 magnetization      52.0434171
 augmentation part      168.0538092 magnetization      47.6579916

 Broyden mixing:
  rms(total) = 0.12909E+02    rms(broyden)= 0.12909E+02
  rms(prec ) = 0.13852E+02
  weight for this iteration     100.00

 eigenvalues of (default mixing * dielectric matrix)
  average eigenvalue GAMMA=   0.2552
  0.2552

 Free energy of the ion-electron system (eV)
  ---------------------------------------------------
  alpha Z        PSCENC =       331.32296425
  Ewald energy   TEWEN  =    105015.44491138
  -Hartree energ DENC   =   -130033.98949893
  -exchange      EXHF   =         0.00000000
  -V(xc)+E(xc)   XCENC  =       603.70951843
  PAW double counting   =     26039.93976348   -27589.80860030
  entropy T*S    EENTRO =         0.03640276
  eigenvalues    EBANDS =     -1726.34874026
  atomic energy  EATOM  =     27000.92142019
  Solvation contrib.  Ediel  =         0.00000000
  ---------------------------------------------------
  free energy    TOTEN  =      -358.77185900 eV

  energy without entropy =     -358.80826177  energy(sigma->0) =     -358.78095970


--------------------------------------------------------------------------------------------------------




----------------------------------------- Iteration    1(   7)  ---------------------------------------


    POTLOK:  cpu time    0.44: real time    0.44
    SETDIJ:  cpu time    0.05: real time    0.05
     EDDAV:  cpu time   31.98: real time   31.98
       DOS:  cpu time    0.00: real time    0.00
    CHARGE:  cpu time    1.41: real time    1.41
    MIXING:  cpu time    0.01: real time    0.01
    --------------------------------------------
      LOOP:  cpu time   33.90: real time   33.90

 eigenvalue-minimisations  :  4920
 total energy-change (2. order) : 0.6276552E+02  (-0.2455572E+02)
 number of electron     314.0000913 magnetization      51.7432624
 augmentation part      174.3875272 magnetization      41.3563008

 Broyden mixing:
  rms(total) = 0.71543E+01    rms(broyden)= 0.71535E+01
  rms(prec ) = 0.77510E+01
  weight for this iteration     100.00

 eigenvalues of (default mixing * dielectric matrix)
  average eigenvalue GAMMA=   0.3826
  0.6175  0.1477

 Free energy of the ion-electron system (eV)
  ---------------------------------------------------
  alpha Z        PSCENC =       331.32296425
  Ewald energy   TEWEN  =    105015.44491138
  -Hartree energ DENC   =   -129953.16932645
  -exchange      EXHF   =         0.00000000
  -V(xc)+E(xc)   XCENC  =       598.43003714
  PAW double counting   =     26506.72682576   -28079.63078359
  entropy T*S    EENTRO =         0.02854197
  eigenvalues    EBANDS =     -1716.08092679
  atomic energy  EATOM  =     27000.92142019
  Solvation contrib.  Ediel  =         0.00000000
  ---------------------------------------------------
  free energy    TOTEN  =      -296.00633613 eV

  energy without entropy =     -296.03487810  energy(sigma->0) =     -296.01347163


--------------------------------------------------------------------------------------------------------




----------------------------------------- Iteration    1(   8)  ---------------------------------------


    POTLOK:  cpu time    0.44: real time    0.44
    SETDIJ:  cpu time    0.05: real time    0.05
     EDDAV:  cpu time   33.22: real time   33.23
       DOS:  cpu time    0.00: real time    0.00
    CHARGE:  cpu time    1.50: real time    1.50
    MIXING:  cpu time    0.01: real time    0.01
    --------------------------------------------
      LOOP:  cpu time   35.23: real time   35.23

 eigenvalue-minimisations  :  5152
 total energy-change (2. order) : 0.2345511E+02  (-0.7397268E+01)
 number of electron     314.0000752 magnetization      51.6482369
 augmentation part      167.6489833 magnetization      42.5497398

 Broyden mixing:
  rms(total) = 0.51279E+01    rms(broyden)= 0.51274E+01
  rms(prec ) = 0.56226E+01
  weight for this iteration     100.00

 eigenvalues of (default mixing * dielectric matrix)
  average eigenvalue GAMMA=   0.4072
  0.8021  0.2695  0.1500

 Free energy of the ion-electron system (eV)
  ---------------------------------------------------
  alpha Z        PSCENC =       331.32296425
  Ewald energy   TEWEN  =    105015.44491138
  -Hartree energ DENC   =   -130227.84508893
  -exchange      EXHF   =         0.00000000
  -V(xc)+E(xc)   XCENC  =       603.54073382
  PAW double counting   =     27702.71955997   -29355.28889333
  entropy T*S    EENTRO =         0.00170484
  eigenvalues    EBANDS =     -1343.36853638
  atomic energy  EATOM  =     27000.92142019
  Solvation contrib.  Ediel  =         0.00000000
  ---------------------------------------------------
  free energy    TOTEN  =      -272.55122419 eV

  energy without entropy =     -272.55292903  energy(sigma->0) =     -272.55165040


--------------------------------------------------------------------------------------------------------




----------------------------------------- Iteration    1(   9)  ---------------------------------------


    POTLOK:  cpu time    0.44: real time    0.44
    SETDIJ:  cpu time    0.05: real time    0.05
     EDDAV:  cpu time   36.67: real time   36.67
       DOS:  cpu time    0.00: real time    0.00
    CHARGE:  cpu time    1.44: real time    1.44
    MIXING:  cpu time    0.01: real time    0.01
    --------------------------------------------
      LOOP:  cpu time   38.62: real time   38.62

 eigenvalue-minimisations  :  5816
 total energy-change (2. order) :-0.2455353E+02  (-0.5592415E+01)
 number of electron     314.0000840 magnetization      51.2376263
 augmentation part      165.2158585 magnetization      45.5631483

 Broyden mixing:
  rms(total) = 0.88138E+01    rms(broyden)= 0.88134E+01
  rms(prec ) = 0.10530E+02
  weight for this iteration     100.00

 eigenvalues of (default mixing * dielectric matrix)
  average eigenvalue GAMMA=   0.3880
  0.7466  0.5351  0.1352  0.1352

 Free energy of the ion-electron system (eV)
  ---------------------------------------------------
  alpha Z        PSCENC =       331.32296425
  Ewald energy   TEWEN  =    105015.44491138
  -Hartree energ DENC   =   -130310.47585538
  -exchange      EXHF   =         0.00000000
  -V(xc)+E(xc)   XCENC  =       606.02266432
  PAW double counting   =     28219.22191566   -29897.98381123
  entropy T*S    EENTRO =         0.03213502
  eigenvalues    EBANDS =     -1261.61109708
  atomic energy  EATOM  =     27000.92142019
  Solvation contrib.  Ediel  =         0.00000000
  ---------------------------------------------------
  free energy    TOTEN  =      -297.10475287 eV

  energy without entropy =     -297.13688789  energy(sigma->0) =     -297.11278663


--------------------------------------------------------------------------------------------------------




----------------------------------------- Iteration    1(  10)  ---------------------------------------


    POTLOK:  cpu time    0.44: real time    0.44
    SETDIJ:  cpu time    0.05: real time    0.05
     EDDAV:  cpu time   33.62: real time   33.62
       DOS:  cpu time    0.00: real time    0.00
    CHARGE:  cpu time    1.34: real time    1.34
    MIXING:  cpu time    0.01: real time    0.01
    --------------------------------------------
      LOOP:  cpu time   35.46: real time   35.46

 eigenvalue-minimisations  :  5232
 total energy-change (2. order) : 0.1597273E+02  (-0.3683689E+01)
 number of electron     314.0000630 magnetization      51.0655496
 augmentation part      164.2897912 magnetization      42.6219838

 Broyden mixing:
  rms(total) = 0.57394E+01    rms(broyden)= 0.57389E+01
  rms(prec ) = 0.66399E+01
  weight for this iteration     100.00

 eigenvalues of (default mixing * dielectric matrix)
  average eigenvalue GAMMA=   0.3454
  0.6561  0.6561  0.1708  0.1708  0.0732

 Free energy of the ion-electron system (eV)
  ---------------------------------------------------
  alpha Z        PSCENC =       331.32296425
  Ewald energy   TEWEN  =    105015.44491138
  -Hartree energ DENC   =   -130325.68262993
  -exchange      EXHF   =         0.00000000
  -V(xc)+E(xc)   XCENC  =       604.89836515
  PAW double counting   =     28527.78705779   -30215.39875323
  entropy T*S    EENTRO =         0.00663777
  eigenvalues    EBANDS =     -1220.43199127
  atomic energy  EATOM  =     27000.92142019
  Solvation contrib.  Ediel  =         0.00000000
  ---------------------------------------------------
  free energy    TOTEN  =      -281.13201790 eV

  energy without entropy =     -281.13865567  energy(sigma->0) =     -281.13367734


--------------------------------------------------------------------------------------------------------




----------------------------------------- Iteration    1(  11)  ---------------------------------------


    POTLOK:  cpu time    0.45: real time    0.45
    SETDIJ:  cpu time    0.05: real time    0.05
     EDDAV:  cpu time   32.40: real time   32.41
       DOS:  cpu time    0.00: real time    0.00
    CHARGE:  cpu time    1.46: real time    1.46
    MIXING:  cpu time    0.01: real time    0.01
    --------------------------------------------
      LOOP:  cpu time   34.37: real time   34.37

 eigenvalue-minimisations  :  5240
 total energy-change (2. order) : 0.1028883E+02  (-0.2355668E+01)
 number of electron     314.0000741 magnetization      50.9499624
 augmentation part      164.9626212 magnetization      41.3471651

 Broyden mixing:
  rms(total) = 0.38702E+01    rms(broyden)= 0.38699E+01
  rms(prec ) = 0.42623E+01
  weight for this iteration     100.00

 eigenvalues of (default mixing * dielectric matrix)
  average eigenvalue GAMMA=   0.3979
  1.0241  0.5061  0.5061  0.1567  0.1013  0.0934

 Free energy of the ion-electron system (eV)
  ---------------------------------------------------
  alpha Z        PSCENC =       331.32296425
  Ewald energy   TEWEN  =    105015.44491138
  -Hartree energ DENC   =   -130318.42175099
  -exchange      EXHF   =         0.00000000
  -V(xc)+E(xc)   XCENC  =       604.80415854
  PAW double counting   =     28653.05846113   -30341.58400638
  entropy T*S    EENTRO =         0.02441024
  eigenvalues    EBANDS =     -1216.41375671
  atomic energy  EATOM  =     27000.92142019
  Solvation contrib.  Ediel  =         0.00000000
  ---------------------------------------------------
  free energy    TOTEN  =      -270.84318834 eV

  energy without entropy =     -270.86759858  energy(sigma->0) =     -270.84929090


--------------------------------------------------------------------------------------------------------




----------------------------------------- Iteration    1(  12)  ---------------------------------------


    POTLOK:  cpu time    0.44: real time    0.44
    SETDIJ:  cpu time    0.05: real time    0.05
     EDDAV:  cpu time   30.98: real time   30.98
       DOS:  cpu time    0.00: real time    0.00
    CHARGE:  cpu time    1.42: real time    1.42
    MIXING:  cpu time    0.01: real time    0.01
    --------------------------------------------
      LOOP:  cpu time   32.90: real time   32.91

 eigenvalue-minimisations  :  4952
 total energy-change (2. order) : 0.2914804E+01  (-0.1242393E+01)
 number of electron     314.0000753 magnetization      50.9023236
 augmentation part      165.0723552 magnetization      41.2895704

 Broyden mixing:
  rms(total) = 0.34091E+01    rms(broyden)= 0.34088E+01
  rms(prec ) = 0.37059E+01
  weight for this iteration     100.00

 eigenvalues of (default mixing * dielectric matrix)
  average eigenvalue GAMMA=   0.3975
  1.2326  0.5327  0.5327  0.1498  0.1237  0.1237  0.0872

 Free energy of the ion-electron system (eV)
  ---------------------------------------------------
  alpha Z        PSCENC =       331.32296425
  Ewald energy   TEWEN  =    105015.44491138
  -Hartree energ DENC   =   -130324.35725490
  -exchange      EXHF   =         0.00000000
  -V(xc)+E(xc)   XCENC  =       605.56942590
  PAW double counting   =     28964.13327251   -30657.88446695
  entropy T*S    EENTRO =        -0.01348640
  eigenvalues    EBANDS =     -1203.06517055
  atomic energy  EATOM  =     27000.92142019
  Solvation contrib.  Ediel  =         0.00000000
  ---------------------------------------------------
  free energy    TOTEN  =      -267.92838457 eV

  energy without entropy =     -267.91489817  energy(sigma->0) =     -267.92501297


--------------------------------------------------------------------------------------------------------




----------------------------------------- Iteration    1(  13)  ---------------------------------------


    POTLOK:  cpu time    0.45: real time    0.45
    SETDIJ:  cpu time    0.05: real time    0.05
     EDDAV:  cpu time   29.54: real time   29.54
       DOS:  cpu time    0.00: real time    0.00
    CHARGE:  cpu time    1.44: real time    1.44
    MIXING:  cpu time    0.01: real time    0.01
    --------------------------------------------
      LOOP:  cpu time   31.49: real time   31.50

 eigenvalue-minimisations  :  4672
 total energy-change (2. order) : 0.3163147E+01  (-0.7678162E+00)
 number of electron     314.0000772 magnetization      50.9679238
 augmentation part      165.1398263 magnetization      41.5006881

 Broyden mixing:
  rms(total) = 0.15621E+01    rms(broyden)= 0.15617E+01
  rms(prec ) = 0.16733E+01
  weight for this iteration     100.00

 eigenvalues of (default mixing * dielectric matrix)
  average eigenvalue GAMMA=   0.3793
  1.2961  0.5185  0.5185  0.2236  0.1582  0.1359  0.0901  0.0938

 Free energy of the ion-electron system (eV)
  ---------------------------------------------------
  alpha Z        PSCENC =       331.32296425
  Ewald energy   TEWEN  =    105015.44491138
  -Hartree energ DENC   =   -130333.23282997
  -exchange      EXHF   =         0.00000000
  -V(xc)+E(xc)   XCENC  =       605.85194674
  PAW double counting   =     29203.52030710   -30901.13346717
  entropy T*S    EENTRO =        -0.05437514
  eigenvalues    EBANDS =     -1187.40611518
  atomic energy  EATOM  =     27000.92142019
  Solvation contrib.  Ediel  =         0.00000000
  ---------------------------------------------------
  free energy    TOTEN  =      -264.76523781 eV

  energy without entropy =     -264.71086267  energy(sigma->0) =     -264.75164402


--------------------------------------------------------------------------------------------------------




----------------------------------------- Iteration    1(  14)  ---------------------------------------


    POTLOK:  cpu time    0.45: real time    0.45
    SETDIJ:  cpu time    0.05: real time    0.05
     EDDAV:  cpu time   32.94: real time   32.95
       DOS:  cpu time    0.00: real time    0.00
    CHARGE:  cpu time    1.46: real time    1.46
    MIXING:  cpu time    0.01: real time    0.01
    --------------------------------------------
      LOOP:  cpu time   34.92: real time   34.92

 eigenvalue-minimisations  :  5352
 total energy-change (2. order) :-0.3868721E+00  (-0.2687191E+00)
 number of electron     314.0000772 magnetization      51.0415515
 augmentation part      165.0274994 magnetization      42.1126801

 Broyden mixing:
  rms(total) = 0.13972E+01    rms(broyden)= 0.13972E+01
  rms(prec ) = 0.14602E+01
  weight for this iteration     100.00

 eigenvalues of (default mixing * dielectric matrix)
  average eigenvalue GAMMA=   0.3557
  1.3280  0.5196  0.5196  0.2314  0.1565  0.1565  0.0878  0.1007  0.1007

 Free energy of the ion-electron system (eV)
  ---------------------------------------------------
  alpha Z        PSCENC =       331.32296425
  Ewald energy   TEWEN  =    105015.44491138
  -Hartree energ DENC   =   -130341.78566465
  -exchange      EXHF   =         0.00000000
  -V(xc)+E(xc)   XCENC  =       606.14373327
  PAW double counting   =     29302.14591657   -31000.70487901
  entropy T*S    EENTRO =        -0.04410193
  eigenvalues    EBANDS =     -1178.59640996
  atomic energy  EATOM  =     27000.92142019
  Solvation contrib.  Ediel  =         0.00000000
  ---------------------------------------------------
  free energy    TOTEN  =      -265.15210989 eV

  energy without entropy =     -265.10800796  energy(sigma->0) =     -265.14108441


--------------------------------------------------------------------------------------------------------




----------------------------------------- Iteration    1(  15)  ---------------------------------------


    POTLOK:  cpu time    0.43: real time    0.43
    SETDIJ:  cpu time    0.05: real time    0.05
     EDDAV:  cpu time   28.90: real time   28.90
       DOS:  cpu time    0.00: real time    0.00
    CHARGE:  cpu time    1.46: real time    1.46
    MIXING:  cpu time    0.01: real time    0.01
    --------------------------------------------
      LOOP:  cpu time   30.86: real time   30.86

 eigenvalue-minimisations  :  4536
 total energy-change (2. order) :-0.1298221E+00  (-0.8747679E-01)
 number of electron     314.0000767 magnetization      51.0924861
 augmentation part      164.9553031 magnetization      42.5287616

 Broyden mixing:
  rms(total) = 0.10470E+01    rms(broyden)= 0.10470E+01
  rms(prec ) = 0.10691E+01
  weight for this iteration     100.00

 eigenvalues of (default mixing * dielectric matrix)
  average eigenvalue GAMMA=   0.3287
  1.3297  0.5056  0.5056  0.1881  0.1881  0.1577  0.1187  0.1187  0.0874  0.0874

 Free energy of the ion-electron system (eV)
  ---------------------------------------------------
  alpha Z        PSCENC =       331.32296425
  Ewald energy   TEWEN  =    105015.44491138
  -Hartree energ DENC   =   -130347.88424704
  -exchange      EXHF   =         0.00000000
  -V(xc)+E(xc)   XCENC  =       606.38846291
  PAW double counting   =     29368.68883909   -31067.75479521
  entropy T*S    EENTRO =        -0.04213084
  eigenvalues    EBANDS =     -1172.36735667
  atomic energy  EATOM  =     27000.92142019
  Solvation contrib.  Ediel  =         0.00000000
  ---------------------------------------------------
  free energy    TOTEN  =      -265.28193195 eV

  energy without entropy =     -265.23980111  energy(sigma->0) =     -265.27139924


--------------------------------------------------------------------------------------------------------




----------------------------------------- Iteration    1(  16)  ---------------------------------------


    POTLOK:  cpu time    0.44: real time    0.44
    SETDIJ:  cpu time    0.05: real time    0.05
     EDDAV:  cpu time   29.62: real time   29.63
       DOS:  cpu time    0.00: real time    0.00
    CHARGE:  cpu time    1.45: real time    1.45
    MIXING:  cpu time    0.02: real time    0.02
    --------------------------------------------
      LOOP:  cpu time   31.59: real time   31.59

 eigenvalue-minimisations  :  4680
 total energy-change (2. order) :-0.1879277E+00  (-0.2188912E-01)
 number of electron     314.0000769 magnetization      51.1719404
 augmentation part      164.9770868 magnetization      42.7707779

 Broyden mixing:
  rms(total) = 0.10337E+01    rms(broyden)= 0.10337E+01
  rms(prec ) = 0.10569E+01
  weight for this iteration     100.00

 eigenvalues of (default mixing * dielectric matrix)
  average eigenvalue GAMMA=   0.3045
  1.3307  0.4985  0.4985  0.1749  0.1749  0.1577  0.1305  0.1305  0.0867  0.0834
  0.0834

 Free energy of the ion-electron system (eV)
  ---------------------------------------------------
  alpha Z        PSCENC =       331.32296425
  Ewald energy   TEWEN  =    105015.44491138
  -Hartree energ DENC   =   -130348.83285035
  -exchange      EXHF   =         0.00000000
  -V(xc)+E(xc)   XCENC  =       606.49603415
  PAW double counting   =     29383.88736037   -31082.86311320
  entropy T*S    EENTRO =        -0.03936728
  eigenvalues    EBANDS =     -1171.80721917
  atomic energy  EATOM  =     27000.92142019
  Solvation contrib.  Ediel  =         0.00000000
  ---------------------------------------------------
  free energy    TOTEN  =      -265.46985967 eV

  energy without entropy =     -265.43049239  energy(sigma->0) =     -265.46001785


--------------------------------------------------------------------------------------------------------




----------------------------------------- Iteration    1(  17)  ---------------------------------------


    POTLOK:  cpu time    0.45: real time    0.45
    SETDIJ:  cpu time    0.05: real time    0.05
     EDDAV:  cpu time   28.57: real time   28.57
       DOS:  cpu time    0.00: real time    0.00
    CHARGE:  cpu time    1.46: real time    1.46
    MIXING:  cpu time    0.02: real time    0.02
    --------------------------------------------
      LOOP:  cpu time   30.55: real time   30.55

 eigenvalue-minimisations  :  4480
 total energy-change (2. order) :-0.2468296E+00  (-0.1458262E-01)
 number of electron     314.0000769 magnetization      51.4951941
 augmentation part      165.0250307 magnetization      43.2480550

 Broyden mixing:
  rms(total) = 0.98323E+00    rms(broyden)= 0.98322E+00
  rms(prec ) = 0.10104E+01
  weight for this iteration     100.00

 eigenvalues of (default mixing * dielectric matrix)
  average eigenvalue GAMMA=   0.4463
  1.4308  0.8748  0.8748  0.5486  0.5486  0.3804  0.1561  0.1356  0.1185  0.1047
  0.0887  0.0940

 Free energy of the ion-electron system (eV)
  ---------------------------------------------------
  alpha Z        PSCENC =       331.32296425
  Ewald energy   TEWEN  =    105015.44491138
  -Hartree energ DENC   =   -130350.19291388
  -exchange      EXHF   =         0.00000000
  -V(xc)+E(xc)   XCENC  =       606.64489150
  PAW double counting   =     29405.34348836   -31104.22583790
  entropy T*S    EENTRO =        -0.03621298
  eigenvalues    EBANDS =     -1170.93940020
  atomic energy  EATOM  =     27000.92142019
  Solvation contrib.  Ediel  =         0.00000000
  ---------------------------------------------------
  free energy    TOTEN  =      -265.71668928 eV

  energy without entropy =     -265.68047630  energy(sigma->0) =     -265.70763603


--------------------------------------------------------------------------------------------------------




----------------------------------------- Iteration    1(  18)  ---------------------------------------


    POTLOK:  cpu time    0.44: real time    0.44
    SETDIJ:  cpu time    0.05: real time    0.05
     EDDAV:  cpu time   32.94: real time   32.94
       DOS:  cpu time    0.00: real time    0.00
    CHARGE:  cpu time    1.47: real time    1.47
    MIXING:  cpu time    0.02: real time    0.02
    --------------------------------------------
      LOOP:  cpu time   34.92: real time   34.92

 eigenvalue-minimisations  :  5360
 total energy-change (2. order) :-0.1004171E+01  (-0.8992021E-01)
 number of electron     314.0000774 magnetization      51.8035038
 augmentation part      165.2791820 magnetization      43.9883381

 Broyden mixing:
  rms(total) = 0.13512E+01    rms(broyden)= 0.13511E+01
  rms(prec ) = 0.14607E+01
  weight for this iteration     100.00

 eigenvalues of (default mixing * dielectric matrix)
  average eigenvalue GAMMA=   0.4668
  1.5660  1.0125  1.0125  0.6116  0.6116  0.4171  0.1568  0.1402  0.1402  0.1181
  0.1018  0.0899  0.0905

 Free energy of the ion-electron system (eV)
  ---------------------------------------------------
  alpha Z        PSCENC =       331.32296425
  Ewald energy   TEWEN  =    105015.44491138
  -Hartree energ DENC   =   -130357.41397746
  -exchange      EXHF   =         0.00000000
  -V(xc)+E(xc)   XCENC  =       607.04976465
  PAW double counting   =     29523.75885785   -31222.81033993
  entropy T*S    EENTRO =        -0.01171979
  eigenvalues    EBANDS =     -1164.98274145
  atomic energy  EATOM  =     27000.92142019
  Solvation contrib.  Ediel  =         0.00000000
  ---------------------------------------------------
  free energy    TOTEN  =      -266.72086033 eV

  energy without entropy =     -266.70914054  energy(sigma->0) =     -266.71793038


--------------------------------------------------------------------------------------------------------




----------------------------------------- Iteration    1(  19)  ---------------------------------------


    POTLOK:  cpu time    0.44: real time    0.44
    SETDIJ:  cpu time    0.05: real time    0.05
     EDDAV:  cpu time   32.14: real time   32.15
       DOS:  cpu time    0.00: real time    0.00
    CHARGE:  cpu time    1.46: real time    1.45
    MIXING:  cpu time    0.02: real time    0.02
    --------------------------------------------
      LOOP:  cpu time   34.11: real time   34.12

 eigenvalue-minimisations  :  5216
 total energy-change (2. order) : 0.2095908E+00  (-0.1138775E+00)
 number of electron     314.0000775 magnetization      52.1709036
 augmentation part      165.5932095 magnetization      44.7361677

 Broyden mixing:
  rms(total) = 0.74628E+00    rms(broyden)= 0.74616E+00
  rms(prec ) = 0.78563E+00
  weight for this iteration     100.00

 eigenvalues of (default mixing * dielectric matrix)
  average eigenvalue GAMMA=   0.4899
  1.6289  1.1073  1.1073  0.6720  0.6720  0.4302  0.4302  0.1564  0.1365  0.1213
  0.1147  0.1003  0.0888  0.0925

 Free energy of the ion-electron system (eV)
  ---------------------------------------------------
  alpha Z        PSCENC =       331.32296425
  Ewald energy   TEWEN  =    105015.44491138
  -Hartree energ DENC   =   -130363.42758298
  -exchange      EXHF   =         0.00000000
  -V(xc)+E(xc)   XCENC  =       607.37062871
  PAW double counting   =     29631.12158844   -31330.21375983
  entropy T*S    EENTRO =        -0.01758369
  eigenvalues    EBANDS =     -1159.03385597
  atomic energy  EATOM  =     27000.92142019
  Solvation contrib.  Ediel  =         0.00000000
  ---------------------------------------------------
  free energy    TOTEN  =      -266.51126950 eV

  energy without entropy =     -266.49368581  energy(sigma->0) =     -266.50687358


--------------------------------------------------------------------------------------------------------




----------------------------------------- Iteration    1(  20)  ---------------------------------------


    POTLOK:  cpu time    0.44: real time    0.44
    SETDIJ:  cpu time    0.05: real time    0.05
     EDDAV:  cpu time   34.22: real time   34.22
       DOS:  cpu time    0.00: real time    0.00
    CHARGE:  cpu time    1.44: real time    1.44
    MIXING:  cpu time    0.02: real time    0.02
    --------------------------------------------
      LOOP:  cpu time   36.18: real time   36.18

 eigenvalue-minimisations  :  5616
 total energy-change (2. order) :-0.2012235E+00  (-0.8055009E-01)
 number of electron     314.0000775 magnetization      52.4512043
 augmentation part      165.7984298 magnetization      45.2971972

 Broyden mixing:
  rms(total) = 0.99668E+00    rms(broyden)= 0.99662E+00
  rms(prec ) = 0.10621E+01
  weight for this iteration     100.00

 eigenvalues of (default mixing * dielectric matrix)
  average eigenvalue GAMMA=   0.4803
  1.6568  1.0937  1.0937  0.7321  0.7321  0.5192  0.4350  0.1580  0.1396  0.1268
  0.1268  0.1085  0.1015  0.0888  0.0923

 Free energy of the ion-electron system (eV)
  ---------------------------------------------------
  alpha Z        PSCENC =       331.32296425
  Ewald energy   TEWEN  =    105015.44491138
  -Hartree energ DENC   =   -130374.29063281
  -exchange      EXHF   =         0.00000000
  -V(xc)+E(xc)   XCENC  =       607.93218746
  PAW double counting   =     29671.45418429   -31370.14321870
  entropy T*S    EENTRO =        -0.01855780
  eigenvalues    EBANDS =     -1149.33575131
  atomic energy  EATOM  =     27000.92142019
  Solvation contrib.  Ediel  =         0.00000000
  ---------------------------------------------------
  free energy    TOTEN  =      -266.71249305 eV

  energy without entropy =     -266.69393525  energy(sigma->0) =     -266.70785360


--------------------------------------------------------------------------------------------------------




----------------------------------------- Iteration    1(  21)  ---------------------------------------


    POTLOK:  cpu time    0.45: real time    0.44
    SETDIJ:  cpu time    0.05: real time    0.05
     EDDAV:  cpu time   29.86: real time   29.86
       DOS:  cpu time    0.00: real time    0.00
    CHARGE:  cpu time    1.40: real time    1.40
    MIXING:  cpu time    0.02: real time    0.02
    --------------------------------------------
[...]
     16     Co         -0.034         -0.038          0.926
     17     Co         -0.044         -0.041          0.934
     18     Co         -0.038         -0.034          0.936
     19     Co         -0.018         -0.015          0.916
     20     Co         -0.036         -0.032          0.935
     21     Co         -0.042         -0.037          0.941
     22     Co         -0.041         -0.038          0.936
     23     Co         -0.040         -0.038          0.925
     24     Co         -0.037         -0.031          0.936
     25     Co          0.024          0.026          1.069
     26     Co          0.028          0.025          1.058
     27     Co          0.034          0.035          1.068
     28     Co          0.030          0.031          1.066
     29     Co          0.027          0.032          1.064
     30     Co          0.005          0.016          1.051
     31     Co          0.100          0.089          0.999
     32     Co          0.099          0.092          1.019
     33     C          -0.144         -0.121          0.840
     34     C           0.059          0.045          0.649
     35     C          -0.150         -0.118          0.836
     36     O          -0.193         -0.146          0.969
     37     H           0.058          0.047          0.720
     38     H           0.036          0.025          0.838
     39     H           0.043          0.028          0.841
     40     H           0.058          0.041          0.751
     41     H           0.013         -0.001          0.755
     42     H           0.055          0.040          0.766
     43     H           0.058          0.046          0.718
     44     H           0.050          0.037          0.785

  dDsC method for vdW energy calculation
  ---------------------------------------------------------------------------------------------

  Parameters of vdW forcefield:
            C6dDsC            XDM            ALPHAts        RELVOL
            (au)              (au)            (au)                
   ---------------------------------------------------------------
   Co        542.730         11.985         54.118          1.082
   Co        540.967         11.982         53.956          1.079
   Co        543.638         11.987         54.197          1.084
   Co        541.428         11.988         53.974          1.079
   Co        541.004         11.976         53.987          1.080
   Co        541.263         11.986         53.966          1.079
   Co        542.967         11.979         54.166          1.083
   Co        543.150         11.998         54.102          1.082
   Co        325.437          8.302         46.849          0.937
   Co        322.001          8.282         46.462          0.929
   Co        323.854          8.281         46.737          0.935
   Co        322.598          8.282         46.549          0.931
   Co        324.694          8.291         46.803          0.936
   Co        321.421          8.273         46.428          0.929
   Co        324.155          8.292         46.719          0.934
   Co        320.920          8.279         46.324          0.926
   Co        325.772          8.334         46.716          0.934
   Co        326.469          8.341         46.775          0.936
   Co        308.413          8.052         45.777          0.916
   Co        326.752          8.357         46.728          0.935
   Co        330.543          8.393         47.063          0.941
   Co        326.856          8.342         46.824          0.936
   Co        318.058          8.220         46.240          0.925
   Co        328.392          8.382         46.820          0.936
   Co        527.508         11.799         53.429          1.069
   Co        518.305         11.713         52.883          1.058
   Co        524.747         11.747         53.386          1.068
   Co        521.645         11.699         53.285          1.066
   Co        523.706         11.760         53.219          1.064
   Co        494.333         11.241         52.555          1.051
   Co        440.597         10.541         49.950          0.999
   Co        465.937         10.932         50.935          1.019
   C          46.899          5.561         10.079          0.840
   C          30.693          4.711          7.785          0.649
   C          46.311          5.514         10.037          0.836
   O          26.491          6.052          5.231          0.969
   H           4.526          1.669          3.240          0.720
   H           7.529          2.385          3.772          0.838
   H           7.371          2.328          3.784          0.841
   H           5.219          1.846          3.379          0.751
   H           6.132          2.157          3.398          0.755
   H           5.725          1.984          3.449          0.766
   H           4.486          1.659          3.231          0.718
   H           6.476          2.191          3.533          0.785

  IVDW =   4
  VDW_RADIUS =    50.000 A
  VDW_S6 aka ATT0 =    13.960
  VDW_SR aka BTT0 =     1.320
  LVDW_ONECELL = F F F

  Number of pair interactions contributing to vdW energy:  340431
  Edisp (eV):   -6.97882
    FORVDW:  cpu time   19.42: real time   19.42

  FORCE on cell =-STRESS in cart. coord.  units (eV):
  Direction    XX          YY          ZZ          XY          YZ          ZX
  --------------------------------------------------------------------------------------
  Alpha Z   331.32296   331.32296   331.32296
  Ewald  120086.23480120499.95294************     2.01441   121.88788    57.18417
  Hartree126295.71134126497.18663************     0.43295    95.30213    41.07899
  E(xc)   -1572.66019 -1572.19963 -1574.77453     0.00183     0.09388    -0.02826
  Local  ************************251579.29907    -2.37231  -218.36554  -102.86729
  n-local  -239.64813  -232.16677  -254.27527    -0.17927     0.47555    -0.09970
  augment  4997.10914  4991.75139  4992.17138    -0.46137     1.13042     0.21683
  Kinetic  2816.29986  2796.95236  2813.05844     0.29264    -0.23952     4.48125
  Fock        0.00000     0.00000     0.00000     0.00000     0.00000     0.00000
  vdW        -8.87469    -8.64292    -4.54645     0.01999    -0.08328    -0.01578
  -------------------------------------------------------------------------------------
  Total     -25.31043   -23.76537    -7.49670    -0.25114     0.20152    -0.04979
  in kB     -26.57190   -24.94983    -7.87033    -0.26366     0.21157    -0.05227
  external pressure =      -19.80 kB  Pullay stress =        0.00 kB


 VOLUME and BASIS-vectors are now :
 -----------------------------------------------------------------------------
  energy-cutoff  :      400.00
  volume of cell :     1526.12
      direct lattice vectors                 reciprocal lattice vectors
     8.559999890  0.000000000  0.000000000     0.116822431  0.000000000  0.000000000
     0.000000000  8.019998610  0.000000000     0.000000000  0.124688301  0.000000000
     0.000000000  0.000000000 22.230000000     0.000000000  0.000000000  0.044984256

  length of vectors
     8.559999890  8.019998610 22.230000000     0.116822431  0.124688301  0.044984256


 FORCES acting on ions
    electron-ion (+dipol)            ewald-force                    non-local-force                 convergence-correction
 -----------------------------------------------------------------------------------------------
   0.446E+02 -.248E+01 0.197E+04   -.432E+02 0.241E+01 -.196E+04   -.122E+01 0.451E-01 -.412E+01   0.159E-02 0.362E-02 -.633E-03
   -.527E+02 0.464E+01 0.197E+04   0.514E+02 -.465E+01 -.196E+04   0.112E+01 0.117E-01 -.426E+01   -.965E-05 -.913E-03 -.203E-02
   0.443E+02 0.127E+01 0.198E+04   -.430E+02 -.122E+01 -.198E+04   -.115E+01 -.234E-01 -.423E+01   0.641E-03 -.364E-02 -.199E-02
   -.533E+02 -.428E+01 0.197E+04   0.519E+02 0.440E+01 -.197E+04   0.118E+01 -.112E+00 -.421E+01   0.199E-02 0.934E-03 -.265E-02
   0.517E+02 -.257E+01 0.196E+04   -.503E+02 0.256E+01 -.196E+04   -.116E+01 0.173E-01 -.428E+01   -.141E-02 0.216E-02 -.607E-03
   -.433E+02 0.513E+01 0.197E+04   0.418E+02 -.511E+01 -.196E+04   0.127E+01 -.327E-01 -.421E+01   0.147E-03 -.233E-03 0.513E-04
   0.521E+02 0.233E+01 0.197E+04   -.507E+02 -.242E+01 -.197E+04   -.117E+01 0.678E-01 -.414E+01   -.406E-03 -.218E-02 -.168E-02
   -.429E+02 -.428E+01 0.198E+04   0.415E+02 0.428E+01 -.197E+04   0.114E+01 -.372E-01 -.412E+01   -.206E-02 0.264E-03 -.102E-02
   -.149E+02 -.321E+01 0.852E+03   0.152E+02 0.323E+01 -.854E+03   -.278E+00 -.264E-01 0.822E+00   0.665E-03 0.135E-02 -.388E-02
   0.836E+01 0.107E+02 0.852E+03   -.857E+01 -.107E+02 -.853E+03   0.311E+00 0.221E-01 0.831E+00   0.709E-03 -.155E-02 -.461E-02
   -.165E+02 0.360E+01 0.865E+03   0.167E+02 -.358E+01 -.867E+03   -.309E+00 -.115E-01 0.803E+00   0.592E-03 -.128E-02 -.449E-02
   0.127E+02 -.113E+02 0.861E+03   -.129E+02 0.113E+02 -.862E+03   0.271E+00 -.270E-02 0.864E+00   -.408E-03 0.148E-02 -.247E-02
   0.588E+00 -.104E+02 0.867E+03   -.354E+00 0.104E+02 -.869E+03   -.289E+00 -.716E-01 0.734E+00   -.592E-03 0.408E-02 -.216E-03
   0.511E+01 0.166E+02 0.872E+03   -.537E+01 -.167E+02 -.873E+03   0.324E+00 0.629E-01 0.662E+00   -.950E-03 -.763E-03 -.259E-02
   -.434E+00 0.529E+01 0.885E+03   0.691E+00 -.526E+01 -.886E+03   -.306E+00 -.348E-01 0.424E+00   -.487E-03 -.402E-02 -.137E-02
   0.168E+01 -.910E+01 0.880E+03   -.186E+01 0.906E+01 -.881E+03   0.247E+00 0.842E-01 0.387E+00   0.263E-03 0.718E-03 -.305E-03
   -.405E+02 -.253E+02 -.531E+03   0.407E+02 0.251E+02 0.532E+03   -.214E+00 0.229E+00 -.101E+01   -.155E-02 0.161E-02 -.135E-02
   -.339E+01 0.219E+02 -.548E+03   0.304E+01 -.220E+02 0.549E+03   0.363E+00 0.135E+00 -.776E+00   -.150E-02 -.167E-02 -.447E-02
   -.443E+02 0.601E+01 -.438E+03   0.449E+02 -.596E+01 0.438E+03   -.557E+00 -.531E-01 0.193E-01   -.205E-02 -.170E-02 -.140E-02
   -.123E+02 -.182E+02 -.523E+03   0.118E+02 0.181E+02 0.524E+03   0.498E+00 0.171E-01 -.761E+00   0.529E-03 0.160E-02 -.104E-02
   -.494E+01 -.129E+02 -.568E+03   0.535E+01 0.129E+02 0.569E+03   -.408E+00 -.174E-01 -.833E+00   0.106E-02 0.380E-03 -.281E-02
   0.438E+02 0.334E+02 -.534E+03   -.441E+02 -.332E+02 0.535E+03   0.324E+00 -.277E+00 -.853E+00   0.178E-02 -.102E-02 -.317E-02
   0.133E+02 0.125E+02 -.508E+03   -.126E+02 -.125E+02 0.509E+03   -.697E+00 -.155E-01 -.963E+00   0.151E-02 -.339E-03 -.243E-02
   0.515E+02 -.251E+02 -.479E+03   -.520E+02 0.250E+02 0.480E+03   0.421E+00 0.105E+00 -.647E+00   -.240E-03 0.102E-02 0.627E-03
   0.364E+02 -.233E+02 -.167E+04   -.353E+02 0.232E+02 0.167E+04   -.108E+01 0.286E-01 0.381E+01   -.861E-04 -.847E-03 -.938E-03
   -.415E+02 0.249E+02 -.168E+04   0.404E+02 -.250E+02 0.168E+04   0.107E+01 0.758E-01 0.387E+01   0.187E-02 -.797E-03 -.705E-03
   0.132E+02 0.243E+02 -.164E+04   -.120E+02 -.243E+02 0.164E+04   -.125E+01 -.399E-01 0.388E+01   0.148E-03 0.862E-03 0.524E-03
   -.319E+02 -.272E+02 -.164E+04   0.308E+02 0.273E+02 0.163E+04   0.112E+01 -.292E-01 0.368E+01   0.104E-02 0.786E-03 -.182E-03
   0.824E+02 -.554E+02 -.162E+04   -.813E+02 0.555E+02 0.162E+04   -.113E+01 -.107E+00 0.379E+01   0.582E-03 0.189E-03 -.114E-02
   -.670E+02 0.927E+02 -.161E+04   0.664E+02 -.920E+02 0.160E+04   0.586E+00 -.639E+00 0.265E+01   -.207E-02 -.107E-02 -.176E-02
   0.164E+03 0.773E+02 -.147E+04   -.165E+03 -.784E+02 0.147E+04   0.729E+00 0.114E+01 0.469E+01   0.553E-03 -.281E-03 -.462E-03
   -.958E+02 -.128E+03 -.148E+04   0.954E+02 0.130E+03 0.147E+04   0.383E+00 -.129E+01 0.369E+01   -.131E-02 0.119E-02 0.148E-02
   0.135E+03 -.487E+02 -.885E+03   -.136E+03 0.489E+02 0.885E+03   0.349E+00 -.177E+00 0.499E+00   0.106E-03 0.109E-03 0.105E-02
   0.172E+02 0.629E+02 -.947E+03   -.187E+02 -.627E+02 0.953E+03   0.148E+01 -.280E+00 -.631E+01   -.892E-05 0.115E-03 0.102E-02
   -.107E+03 -.480E+02 -.879E+03   0.108E+03 0.481E+02 0.879E+03   -.392E+00 -.157E+00 0.318E+00   -.344E-04 0.124E-03 0.929E-03
   -.869E+02 0.438E+02 -.130E+04   0.967E+02 -.388E+02 0.129E+04   -.973E+01 -.503E+01 0.144E+02   -.363E-03 0.690E-03 0.782E-03
   0.334E+02 -.740E+01 -.244E+03   -.350E+02 0.766E+01 0.249E+03   0.155E+01 -.250E+00 -.524E+01   -.230E-05 0.254E-04 0.130E-03
   0.598E+02 0.223E+02 -.203E+03   -.638E+02 -.249E+02 0.200E+03   0.394E+01 0.258E+01 0.282E+01   0.654E-04 0.174E-04 0.323E-03
   0.188E+02 -.646E+02 -.207E+03   -.186E+02 0.697E+02 0.205E+03   -.258E+00 -.510E+01 0.195E+01   0.392E-04 0.349E-04 0.283E-03
   0.687E+01 0.728E+02 -.238E+03   -.729E+01 -.781E+02 0.240E+03   0.425E+00 0.534E+01 -.176E+01   -.546E-05 -.236E-04 0.283E-03
   -.373E+02 0.431E+02 -.215E+03   0.382E+02 -.439E+02 0.215E+03   -.905E+00 0.736E+00 0.248E-01   -.152E-03 0.778E-04 0.117E-03
   -.649E+02 0.229E+02 -.206E+03   0.697E+02 -.255E+02 0.205E+03   -.480E+01 0.261E+01 0.890E+00   -.275E-04 0.393E-05 0.299E-03
   -.437E+01 -.736E+01 -.236E+03   0.351E+01 0.762E+01 0.241E+03   0.871E+00 -.250E+00 -.540E+01   0.142E-04 0.266E-04 0.751E-05
   -.232E+02 -.654E+02 -.201E+03   0.238E+02 0.706E+02 0.199E+03   -.554E+00 -.513E+01 0.190E+01   -.315E-04 0.449E-04 0.287E-03
 -----------------------------------------------------------------------------------------------
   0.798E+01 0.589E+01 0.214E+00   0.185E-12 0.995E-13 -.384E-11   -.789E+01 -.588E+01 0.279E+00   0.162E-03 0.118E-02 -.442E-01
 
 
 POSITION                                       TOTAL-FORCE (eV/Angst)
 -----------------------------------------------------------------------------------
      4.27999      4.01000      0.00000         0.220136     -0.026149      0.551698
      5.70701      6.01499      0.00000        -0.218027     -0.001421      0.530872
      4.27999      0.00000      0.00000         0.206494      0.023735      0.501607
      5.70701      2.00500      0.00000        -0.232090      0.006373      0.519013
      0.00000      4.01000      0.00000         0.210911      0.008474      0.533675
      1.42700      6.01499      0.00000        -0.209088     -0.004774      0.533413
      0.00000      0.00000      0.00000         0.256376     -0.029663      0.471939
      1.42700      2.00500      0.00000        -0.238748     -0.035017      0.504001
      6.42000      4.01000      1.23500        -0.037030     -0.001758     -0.491682
      7.84699      6.01499      1.23500         0.092287      0.009050     -0.502764
      6.42000      0.00000      1.23500        -0.114386      0.005332     -0.528182
      7.84699      2.00500      1.23500         0.043153      0.015877     -0.529309
      2.14000      4.01000      1.23500        -0.057470     -0.003408     -0.587030
      3.56700      6.01499      1.23500         0.060282     -0.024415     -0.618536
      2.14000      0.00000      1.23500        -0.050623     -0.013545     -0.468230
      3.56700      2.00500      1.23500         0.064685      0.046086     -0.408475
      4.29510      4.00167      2.49850        -0.001656      0.001516      0.002509
      5.70198      6.00986      2.49648         0.006288     -0.000436     -0.000326
      4.29637      8.00096      2.46324         0.003075      0.001628      0.001524
      5.68315      2.00025      2.49999         0.002832     -0.000228     -0.003563
      0.01906      4.01067      2.51492         0.001425      0.003394      0.000654
      1.42161      6.02584      2.50162         0.003765      0.002589     -0.000978
      0.00907      0.00523      2.48269        -0.005320     -0.002289      0.001770
      1.42904      2.01466      2.47899        -0.000511     -0.000549      0.000688
      6.47969      4.00720      3.62393        -0.000379      0.001400     -0.000107
      7.80629      6.01843      3.62967        -0.002050      0.000624     -0.001148
      6.47564      8.01397      3.62615         0.002291      0.001530     -0.002411
      7.79002      1.99642      3.61692         0.002351     -0.001324      0.001271
      2.20025      4.02118      3.61642        -0.000088     -0.001196     -0.000933
      3.54410      6.04205      3.62272         0.001101     -0.003030      0.002823
      2.08130      8.00597      3.65779        -0.004055      0.001612     -0.004661
      3.53781      2.05489      3.68899         0.001913      0.001539      0.006174
      1.62284      1.49376      6.72246        -0.005651      0.009698     -0.000082
      2.95814      0.79393      6.57298         0.003728      0.006980     -0.005731
      4.09751      1.49724      7.28474         0.005847      0.002010     -0.000293
      3.30462      0.72293      5.15942         0.001319     -0.001151      0.000013
      1.32421      1.53697      7.78018         0.000600      0.001374     -0.003053
      0.83946      0.96564      6.15606        -0.002982     -0.003306     -0.004268
      1.68887      2.52222      6.33191        -0.000171     -0.006307     -0.001911
      2.87673      7.76724      6.91293         0.000213     -0.002106      0.001391
      3.70307      7.65533      4.57411         0.000535     -0.000171     -0.000099
      5.04574      0.97033      7.10958        -0.003316      0.003934      0.001240
      3.91001      1.54089      8.36739        -0.005004      0.004865      0.000648
      4.19669      2.52465      6.90218        -0.002959      0.002622     -0.003151
 -----------------------------------------------------------------------------------
    total drift:                                0.097824      0.004098      0.449198


--------------------------------------------------------------------------------------------------------



  FREE ENERGIE OF THE ION-ELECTRON SYSTEM (eV)
  ---------------------------------------------------
  free  energy   TOTEN  =      -273.56577709 eV

  energy  without entropy=     -273.52521921  energy(sigma->0) =     -273.55563762
 


--------------------------------------------------------------------------------------------------------


    POTLOK:  cpu time    0.51: real time    0.51


--------------------------------------------------------------------------------------------------------


 Dimer: Init Mode:
 Dimer: MODECAR found
 Dimer: -----------------
 Dimer: Itr    1 Rot    0

 Dimer: Central Point
 Dimer: F0      0.027589

 Dimer: Projection
 Dimer: N*F0 -1.836027726065750E-003
 Dimer: F0sq  7.611362391121637E-004
 Dimer: Feffsq   3.370997810882168E-006
 
 stress matrix after NEB project (eV)
    -25.31043     -0.25114     -0.04979
     -0.25114    -23.76537      0.20152
     -0.04979      0.20152     -7.49670
  FORCES: max atom, RMS     0.011224    0.004159
  FORCE total and by dimension    0.027589    0.009698
  Stress total and by dimension   35.522153   25.310429
 OPT: skip step - force has converged


--------------------------------------------------------------------------------------------------------


  
 reached required accuracy - stopping structural energy minimisation
     LOOP+:  cpu time 2047.36: real time 2047.60
    4ORBIT:  cpu time    0.00: real time    0.00

 total amount of memory used by VASP on root node   203390. kBytes
========================================================================

   base      :      30000. kBytes
   nonlr-proj:       7832. kBytes
   fftplans  :       7367. kBytes
   grid      :      34170. kBytes
   one-center:       1368. kBytes
   wavefun   :     122653. kBytes
 
  
  
 General timing and accounting informations for this job:
 ========================================================
  
                  Total CPU time used (sec):     2055.624
                            User time (sec):     2054.052
                          System time (sec):        1.572
                         Elapsed time (sec):     2056.823
  
                   Maximum memory used (kb):      245220.
                   Average memory used (kb):           0.
  
                          Minor page faults:       319277
                          Major page faults:            0
                 Voluntary context switches:          369
