 vasp.5.3.5 31Mar14 (build Jan 31 2018 16:04:57) complex                        
  
 executed on             LinuxIFC date 2018.12.29  17:43:52
 running on    8 total cores
 distrk:  each k-point on    8 cores,    1 groups
 distr:  one band on NCORES_PER_BAND=   1 cores,    8 groups


--------------------------------------------------------------------------------------------------------


 INCAR:
 POTCAR:    PAW_PBE Co 02Aug2007                  
 POTCAR:    PAW_PBE H 15Jun2001                   

 ----------------------------------------------------------------------------- 
|                                                                             |
|           W    W    AA    RRRRR   N    N  II  N    N   GGGG   !!!           |
|           W    W   A  A   R    R  NN   N  II  NN   N  G    G  !!!           |
|           W    W  A    A  R    R  N N  N  II  N N  N  G       !!!           |
|           W WW W  AAAAAA  RRRRR   N  N N  II  N  N N  G  GGG   !            |
|           WW  WW  A    A  R   R   N   NN  II  N   NN  G    G                |
|           W    W  A    A  R    R  N    N  II  N    N   GGGG   !!!           |
|                                                                             |
|      For optimal performance we recommend to set                            |
|        NCORE= 4 - approx SQRT( number of cores)                             |
|      NCORE specifies how many cores store one orbital (NPAR=cpu/NCORE).     |
|      This setting can  greatly improve the performance of VASP for DFT.     |
|      The default, NPAR=number of cores might be grossly inefficient         |
|      on modern multi-core architectures or massively parallel machines.     |
|      Do your own testing !!!!                                               |
|      Unfortunately you need to use the default for GW and RPA calculations. |
|      (for HF NCORE is supported but not extensively tested yet)             |
|                                                                             |
 ----------------------------------------------------------------------------- 

 POTCAR:    PAW_PBE Co 02Aug2007                  
   VRHFIN =Co: d8 s1                                                            
   LEXCH  = PE                                                                  
   EATOM  =   813.3670 eV,   59.7808 Ry                                         
                                                                                
   TITEL  = PAW_PBE Co 02Aug2007                                                
   LULTRA =        F    use ultrasoft PP ?                                      
   IUNSCR =        1    unscreen: 0-lin 1-nonlin 2-no                           
   RPACOR =    2.000    partial core radius                                     
   POMASS =   58.933; ZVAL   =    9.000    mass and valenz                      
   RCORE  =    2.300    outmost cutoff radius                                   
   RWIGS  =    2.460; RWIGS  =    1.302    wigner-seitz radius (au A)           
   ENMAX  =  267.968; ENMIN  =  200.976 eV                                      
   RCLOC  =    1.203    cutoff for local pot                                    
   LCOR   =        T    correct aug charges                                     
   LPAW   =        T    paw PP                                                  
   EAUG   =  477.818                                                            
   DEXC   =    0.000                                                            
   RMAX   =    2.360    core radius for proj-oper                               
   RAUG   =    1.300    factor for augmentation sphere                          
   RDEP   =    2.393    radius for radial grids                                 
   RDEPT  =    1.864    core radius for aug-charge                              
                                                                                
   Atomic configuration                                                         
    9 entries                                                                   
     n  l   j            E        occ.                                          
     1  0  0.50     -7587.6674   2.0000                                         
     2  0  0.50      -893.6084   2.0000                                         
     2  1  1.50      -764.5805   6.0000                                         
     3  0  0.50       -97.5973   2.0000                                         
     3  1  1.50       -60.9648   6.0000                                         
     3  2  2.50        -4.2382   8.0000                                         
     4  0  0.50        -4.3746   1.0000                                         
     4  1  1.50        -4.0817   0.0000                                         
     4  3  2.50        -1.3606   0.0000                                         
   Description                                                                  
     l       E           TYP  RCUT    TYP  RCUT                                 
     2     -4.2382362     23  2.300                                             
     2     -5.5988188     23  2.300                                             
     0     -4.3745797     23  2.300                                             
     0      5.7660125     23  2.300                                             
     1     -2.7211652     23  2.300                                             
     1     16.9860234     23  2.300                                             
  local pseudopotential read in
  partial core-charges read in
  partial kinetic energy density read in
  atomic valenz-charges read in
  non local Contribution for L=           2  read in
    real space projection operators read in
  non local Contribution for L=           2  read in
    real space projection operators read in
  non local Contribution for L=           0  read in
    real space projection operators read in
  non local Contribution for L=           0  read in
    real space projection operators read in
  non local Contribution for L=           1  read in
    real space projection operators read in
  non local Contribution for L=           1  read in
    real space projection operators read in
    PAW grid and wavefunctions read in
 
   number of l-projection  operators is LMAX  =           6
   number of lm-projection operators is LMMAX =          18
 
 POTCAR:    PAW_PBE H 15Jun2001                   
   VRHFIN =H: ultrasoft test                                                    
   LEXCH  = PE                                                                  
   EATOM  =    12.4884 eV,    0.9179 Ry                                         
                                                                                
   TITEL  = PAW_PBE H 15Jun2001                                                 
   LULTRA =        F    use ultrasoft PP ?                                      
   IUNSCR =        0    unscreen: 0-lin 1-nonlin 2-no                           
   RPACOR =    0.000    partial core radius                                     
   POMASS =    1.000; ZVAL   =    1.000    mass and valenz                      
   RCORE  =    1.100    outmost cutoff radius                                   
   RWIGS  =    0.700; RWIGS  =    0.370    wigner-seitz radius (au A)           
   ENMAX  =  250.000; ENMIN  =  200.000 eV                                      
   RCLOC  =    0.701    cutoff for local pot                                    
   LCOR   =        T    correct aug charges                                     
   LPAW   =        T    paw PP                                                  
   EAUG   =  400.000                                                            
   RMAX   =    1.123    core radius for proj-oper                               
   RAUG   =    1.200    factor for augmentation sphere                          
   RDEP   =    1.112    radius for radial grids                                 
   RDEPT  =    0.926    core radius for aug-charge                              
                                                                                
   Atomic configuration                                                         
    2 entries                                                                   
     n  l   j            E        occ.                                          
     1  0  0.50        -6.4927   1.0000                                         
     2  1  0.50        -3.4015   0.0000                                         
   Description                                                                  
     l       E           TYP  RCUT    TYP  RCUT                                 
     0     -6.4927494     23  1.100                                             
     0      6.8029130     23  1.100                                             
     1     -4.0817478     23  1.100                                             
  local pseudopotential read in
  atomic valenz-charges read in
  non local Contribution for L=           0  read in
    real space projection operators read in
  non local Contribution for L=           0  read in
    real space projection operators read in
  non local Contribution for L=           1  read in
    real space projection operators read in
    PAW grid and wavefunctions read in
 
   number of l-projection  operators is LMAX  =           3
   number of lm-projection operators is LMMAX =           5
 
 Optimization of the real space projectors (new method)

 maximal supplied QI-value         = 16.25
 optimisation between [QCUT,QGAM] = [ 10.24, 20.48] = [ 29.35,117.42] Ry 
 Optimized for a Real-space Cutoff    1.34 Angstroem

   l    n(q)    QCUT    max X(q) W(low)/X(q) W(high)/X(q)  e(spline) 
   2      7    10.239    65.824    0.41E-03    0.10E-02    0.11E-06
   2      7    10.239    61.429    0.41E-03    0.10E-02    0.11E-06
   0      8    10.239    56.174    0.42E-03    0.17E-03    0.96E-07
   0      8    10.239    31.263    0.38E-03    0.16E-03    0.87E-07
   1      8    10.239    19.828    0.20E-03    0.56E-03    0.13E-06
   1      8    10.239    15.139    0.15E-03    0.46E-03    0.11E-06
 Optimization of the real space projectors (new method)

 maximal supplied QI-value         = 34.20
 optimisation between [QCUT,QGAM] = [  9.92, 20.18] = [ 27.55,114.04] Ry 
 Optimized for a Real-space Cutoff    1.26 Angstroem

   l    n(q)    QCUT    max X(q) W(low)/X(q) W(high)/X(q)  e(spline) 
   0      8     9.919    19.460    0.50E-03    0.23E-03    0.29E-06
   0      8     9.919    12.209    0.48E-03    0.23E-03    0.28E-06
   1      7     9.919     4.655    0.17E-03    0.75E-03    0.30E-06
  PAW_PBE Co 02Aug2007                  :
 energy of atom  1       EATOM= -813.3670
 kinetic energy error for atom=    0.0093 (will be added to EATOM!!)
  PAW_PBE H 15Jun2001                   :
 energy of atom  2       EATOM=  -12.4884
 kinetic energy error for atom=    0.0098 (will be added to EATOM!!)
 
 
 POSCAR: Co H                                    
  positions in direct lattice
  velocities in cartesian coordinates
 exchange correlation table for  LEXCH =        8
   RHO(1)=    0.500       N(1)  =     2000
   RHO(2)=  100.500       N(2)  =     4000

 VTST: version 3.1, (03/28/14)

 CHAIN: initializing optimizer
 
 OPT: Using VASP Conjugate-Gradient optimizer
 CHAIN: Read ICHAIN            0
 
 POSCAR: Co H                                    
  positions in direct lattice
  velocities in cartesian coordinates
 


--------------------------------------------------------------------------------------------------------


 ion  position               nearest neighbor table
   1  0.500  0.500  0.000-  16 2.46  14 2.46   4 2.46   2 2.46  13 2.47   9 2.47  24 2.48
   2  0.667  0.750  0.000-   9 2.46  11 2.46   1 2.46   3 2.46  10 2.47  14 2.47  23 2.51
   3  0.500  0.000  0.000-  16 2.46  14 2.46   4 2.46   2 2.46  15 2.47  11 2.47  22 2.50
   4  0.667  0.250  0.000-   9 2.46  11 2.46   1 2.46   3 2.46  12 2.47  16 2.47  21 2.50
   5  0.000  0.500  0.000-  12 2.46  10 2.46   8 2.46   6 2.46   9 2.47  13 2.47  20 2.50
   6  0.167  0.750  0.000-  13 2.46  15 2.46   5 2.46   7 2.46  14 2.47  10 2.47  19 2.50
   7  0.000  0.000  0.000-  12 2.46  10 2.46   8 2.46   6 2.46  11 2.47  15 2.47  18 2.50
   8  0.167  0.250  0.000-  13 2.46  15 2.46   5 2.46   7 2.46  16 2.47  12 2.47  17 2.48
   9  0.750  0.500  0.056-  32 2.38   4 2.46   2 2.46  12 2.46  10 2.46  24 2.47   5 2.47   1 2.47
                            23 2.48  21 2.49  20 2.51
  10  0.917  0.750  0.056-  31 2.39   5 2.46   7 2.46   9 2.46  11 2.46   2 2.47   6 2.47  18 2.48
                            19 2.48  20 2.48  23 2.50
  11  0.750  0.000  0.056-  30 2.39   4 2.46   2 2.46  12 2.46  10 2.46   7 2.47   3 2.47  23 2.48
                            21 2.48  22 2.48  18 2.50
  12  0.917  0.250  0.056-  29 2.38   5 2.46   7 2.46   9 2.46  11 2.46  17 2.46   4 2.47   8 2.47
                            18 2.48  20 2.48  21 2.51
  13  0.250  0.500  0.056-  28 2.44   8 2.46   6 2.46  16 2.46  14 2.46  20 2.46   1 2.47   5 2.47
                            19 2.47  17 2.48  24 2.49
  14  0.417  0.750  0.056-  27 2.39   1 2.46   3 2.46  13 2.46  15 2.46  24 2.47   6 2.47   2 2.47
                            23 2.48  22 2.49  19 2.49
  15  0.250  0.000  0.056-  26 2.39   8 2.46   6 2.46  16 2.46  14 2.46  17 2.47   3 2.47   7 2.47
                            18 2.48  19 2.49  22 2.49
  16  0.417  0.250  0.056-  25 2.44   1 2.46   3 2.46  13 2.46  15 2.46  21 2.46   8 2.47   4 2.47
                            24 2.47  22 2.47  17 2.49
  17  0.165  0.249  0.112-  25 2.41  26 2.43  18 2.44  20 2.44  28 2.44  29 2.46  12 2.46  15 2.47
                            13 2.48   8 2.48  16 2.49
  18  0.001  1.000  0.113-  30 2.38  31 2.42  29 2.42  17 2.44  26 2.45  19 2.46  15 2.48  10 2.48
                            12 2.48  11 2.50   7 2.50
  19  0.166  0.749  0.113-  27 2.37  26 2.43  20 2.43  31 2.45  18 2.46  28 2.46  13 2.47  10 2.48
                            15 2.49  14 2.49   6 2.50
  20  0.003  0.500  0.112-  32 2.38  31 2.43  29 2.43  19 2.43  17 2.44  13 2.46  28 2.46  12 2.48
                            10 2.48   5 2.50   9 2.51
  21  0.663  0.250  0.113-  29 2.38  30 2.43  22 2.43  32 2.43  24 2.44  16 2.46  25 2.46  11 2.48
                             9 2.49   4 2.50  12 2.51
  22  0.501  0.001  0.113-  26 2.37  27 2.43  21 2.43  30 2.45  23 2.46  25 2.46  16 2.47  11 2.48
                            14 2.49  15 2.49   3 2.50
  23  0.665  0.750  0.113-  31 2.38  30 2.42  32 2.42  24 2.44  27 2.45  22 2.46  14 2.48  11 2.48
                             9 2.48  10 2.50   2 2.51
  24  0.502  0.500  0.112-  28 2.41  27 2.43  21 2.44  25 2.44  23 2.44  32 2.46   9 2.47  14 2.47
                            16 2.47   1 2.48  13 2.49
  25  0.410  0.253  0.165-  33 1.67  28 2.36  17 2.41  26 2.42  16 2.44  24 2.44  22 2.46  21 2.46

  26  0.257  1.000  0.163-  22 2.37  15 2.39  27 2.40  25 2.42  19 2.43  17 2.43  18 2.45
  27  0.410  0.750  0.163-  19 2.37  14 2.39  26 2.40  28 2.42  24 2.43  22 2.43  23 2.45
  28  0.256  0.497  0.165-  33 1.67  25 2.36  24 2.41  27 2.42  13 2.44  17 2.44  19 2.46  20 2.46

  29  0.909  0.250  0.163-  12 2.38  21 2.38  32 2.39  30 2.40  18 2.42  20 2.43  17 2.46
  30  0.756  1.000  0.163-  18 2.38  11 2.39  29 2.40  31 2.41  23 2.42  21 2.43  22 2.45
  31  0.911  0.750  0.163-  23 2.38  10 2.39  32 2.40  30 2.41  18 2.42  20 2.43  19 2.45
  32  0.757  0.500  0.163-   9 2.38  20 2.38  29 2.39  31 2.40  23 2.42  21 2.43  24 2.46
  33  0.331  0.373  0.218-  25 1.67  28 1.67
 
  LATTYP: Found a simple orthorhombic cell.
 ALAT       =     8.0199986100
 B/A-ratio  =     1.0673318421
 C/A-ratio  =     2.7718209293
  
  Lattice vectors:
  
 A1 = (   0.0000000000,  -8.0199986100,   0.0000000000)
 A2 = (  -8.5599998900,   0.0000000000,   0.0000000000)
 A3 = (   0.0000000000,   0.0000000000, -22.2300000000)


Analysis of symmetry for initial positions (statically):
=====================================================================
 Subroutine PRICEL returns:
 Original cell was already a primitive cell.
 

 Routine SETGRP: Setting up the symmetry group for a 
 simple orthorhombic supercell.


 Subroutine GETGRP returns: Found  1 space group operations
 (whereof  1 operations were pure point group operations)
 out of a pool of  8 trial point group operations.


The static configuration has the point symmetry C_1 .


Analysis of symmetry for dynamics (positions and initial velocities):
=====================================================================
 Subroutine PRICEL returns:
 Original cell was already a primitive cell.
 

 Routine SETGRP: Setting up the symmetry group for a 
 simple orthorhombic supercell.


 Subroutine GETGRP returns: Found  1 space group operations
 (whereof  1 operations were pure point group operations)
 out of a pool of  8 trial point group operations.


The dynamic configuration has the point symmetry C_1 .


Analysis of constrained symmetry for selective dynamics:
=====================================================================
 Subroutine PRICEL returns:
 Original cell was already a primitive cell.
 

 Routine SETGRP: Setting up the symmetry group for a 
 simple orthorhombic supercell.


 Subroutine GETGRP returns: Found  1 space group operations
 (whereof  1 operations were pure point group operations)
 out of a pool of  8 trial point group operations.


The constrained configuration has the point symmetry C_1 .


Analysis of magnetic symmetry:
=====================================================================
 Subroutine PRICEL returns:
 Original cell was already a primitive cell.
 

 Subroutine MAGSYM returns: Found  1 space group operations
 (whereof  1 operations were pure point group operations)
 out of a pool of  1 trial space group operations
 (whereof  1 operations were pure point group operations)
 and found also     1 'primitive' translations


The magnetic configuration has the point symmetry C_1 .
 
 
 KPOINTS:  Automatic mesh                         

Automatic generation of k-mesh.
Space group operators:
 irot       det(A)        alpha          n_x          n_y          n_z        tau_x        tau_y        tau_z
    1     1.000000     0.000000     1.000000     0.000000     0.000000     0.000000     0.000000     0.000000
 
 Subroutine IBZKPT returns following result:
 ===========================================
 
 Found      5 irreducible k-points:
 
 Following reciprocal coordinates:
            Coordinates               Weight
  0.000000  0.000000  0.000000      1.000000
  0.333333  0.000000  0.000000      2.000000
  0.000000  0.333333  0.000000      2.000000
  0.333333  0.333333  0.000000      2.000000
 -0.333333  0.333333  0.000000      2.000000
 
 Following cartesian coordinates:
            Coordinates               Weight
  0.000000  0.000000  0.000000      1.000000
  0.096184  0.000000  0.000000      2.000000
  0.000000  0.102660  0.000000      2.000000
  0.096184  0.102660  0.000000      2.000000
 -0.096184  0.102660  0.000000      2.000000
 


--------------------------------------------------------------------------------------------------------




 Dimension of arrays:
   k-points           NKPTS =      5   k-points in BZ     NKDIM =      5   number of bands    NBANDS=    200
   number of dos      NEDOS =    301   number of ions     NIONS =     33
   non local maximal  LDIM  =      6   non local SUM 2l+1 LMDIM =     18
   total plane-waves  NPLWV = 188160
   max r-space proj   IRMAX =   1293   max aug-charges    IRDMAX=   5061
   dimension x,y,z NGX =    42 NGY =   40 NGZ =  112
   dimension x,y,z NGXF=    84 NGYF=   80 NGZF=  224
   support grid    NGXF=    84 NGYF=   80 NGZF=  224
   ions per type =              32   1
 NGX,Y,Z   is equivalent  to a cutoff of   8.16,  8.29,  8.38 a.u.
 NGXF,Y,Z  is equivalent  to a cutoff of  16.31, 16.58, 16.75 a.u.


 I would recommend the setting:
   dimension x,y,z NGX =    42 NGY =   39 NGZ =  109
 SYSTEM =  unknown system                          
 POSCAR =  Co H                                    

 Startparameter for this run:
   NWRITE =      2    write-flag & timer
   PREC   = normal    normal or accurate (medium, high low for compatibility)
   ISTART =      0    job   : 0-new  1-cont  2-samecut
   ICHARG =      2    charge: 1-file 2-atom 10-const
   ISPIN  =      2    spin polarized calculation?
   LNONCOLLINEAR =      F non collinear calculations
   LSORBIT =      F    spin-orbit coupling
   INIWAV =      1    electr: 0-lowe 1-rand  2-diag
   LASPH  =      F    aspherical Exc in radial PAW
   METAGGA=      F    non-selfconsistent MetaGGA calc.
   LSOL =      F    Solvation

 Electronic Relaxation 1
   ENCUT  =  400.0 eV  29.40 Ry    5.42 a.u.  13.96 13.08 36.25*2*pi/ulx,y,z
   ENINI  =  400.0     initial cutoff
   ENAUG  =  644.9 eV  augmentation charge cutoff
   NELM   =     60;   NELMIN=  2; NELMDL= -5     # of ELM steps 
   EDIFF  = 0.1E-05   stopping-criterion for ELM
   LREAL  =      T    real-space projection
   NLSPLINE    = F    spline interpolate recip. space projectors
   LCOMPAT=      F    compatible to vasp.4.4
   GGA_COMPAT  = T    GGA compatible to vasp.4.4-vasp.4.6
   LMAXPAW     = -100 max onsite density
   LMAXMIX     =    2 max onsite mixed and CHGCAR
   VOSKOWN=      0    Vosko Wilk Nusair interpolation
   ROPT   =   -0.00050  -0.00050
 Ionic relaxation
   EDIFFG = -.1E-01   stopping-criterion for IOM
   NSW    =    400    number of steps for IOM
   NBLOCK =      1;   KBLOCK =    400    inner block; outer block 
   IBRION =      2    ionic relax: 0-MD 1-quasi-New 2-CG
   NFREE  =      1    steps in history (QN), initial steepest desc. (CG)
   ISIF   =      2    stress and relaxation
   IWAVPR =     11    prediction:  0-non 1-charg 2-wave 3-comb
   ISYM   =      2    0-nonsym 1-usesym 2-fastsym
   LCORR  =      T    Harris-Foulkes like correction to forces

   POTIM  = 0.5000    time-step for ionic-motion
   TEIN   =    0.0    initial temperature
   TEBEG  =    0.0;   TEEND  =   0.0 temperature during run
   SMASS  =  -3.00    Nose mass-parameter (am)
   estimated Nose-frequenzy (Omega)   =  0.10E-29 period in steps =****** mass=  -0.167E-26a.u.
   SCALEE = 1.0000    scale energy and forces
   NPACO  =    256;   APACO  = 16.0  distance and # of slots for P.C.
   PSTRESS=    0.0 pullay stress

  Mass of Ions in am
   POMASS =  58.93  1.00
  Ionic Valenz
   ZVAL   =   9.00  1.00
  Atomic Wigner-Seitz radii
   RWIGS  =  -1.00 -1.00
  virtual crystal weights 
   VCA    =   1.00  1.00
   NELECT =     289.0000    total number of electrons
   NUPDOWN=      -1.0000    fix difference up-down

 DOS related values:
   EMIN   =  10.00;   EMAX   =-10.00  energy-range for DOS
   EFERMI =   0.00
   ISMEAR =     2;   SIGMA  =   0.20  broadening in eV -4-tet -1-fermi 0-gaus

 Electronic relaxation 2 (details)
   IALGO  =     38    algorithm
   LDIAG  =      T    sub-space diagonalisation (order eigenvalues)
   LSUBROT=      F    optimize rotation matrix (better conditioning)
   TURBO    =      0    0=normal 1=particle mesh
   IRESTART =      0    0=no restart 2=restart with 2 vectors
   NREBOOT  =      0    no. of reboots
   NMIN     =      0    reboot dimension
   EREF     =   0.00    reference energy to select bands
   IMIX   =      4    mixing-type and parameters
     AMIX     =   0.40;   BMIX     =  1.00
     AMIX_MAG =   1.60;   BMIX_MAG =  1.00
     AMIN     =   0.10
     WC   =   100.;   INIMIX=   1;  MIXPRE=   1;  MAXMIX= -45

 Intra band minimization:
   WEIMIN = 0.0010     energy-eigenvalue tresh-hold
   EBREAK =  0.13E-08  absolut break condition
   DEPER  =   0.30     relativ break condition  

   TIME   =   0.40     timestep for ELM

  volume/ion in A,a.u.               =      46.25       312.08
  Fermi-wavevector in a.u.,A,eV,Ry     =   0.940109  1.776549 12.024900  0.883805
  Thomas-Fermi vector in A             =   2.067488
 
 Write flags
   LWAVE  =      F    write WAVECAR
   LCHARG =      F    write CHGCAR
   LVTOT  =      F    write LOCPOT, total local potential
   LVHAR  =      F    write LOCPOT, Hartree potential only
   LELF   =      F    write electronic localiz. function (ELF)
   LORBIT =      0    0 simple, 1 ext, 2 COOP (PROOUT)


 Dipole corrections
   LMONO  =      F    monopole corrections only (constant potential shift)
   LDIPOL =      F    correct potential (dipole corrections)
   IDIPOL =      3    1-x, 2-y, 3-z, 4-all directions 
   EPSILON=  1.0000000 bulk dielectric constant

 Exchange correlation treatment:
   GGA     =    PE    GGA type
   LEXCH   =     8    internal setting for exchange type
   VOSKOWN=      0    Vosko Wilk Nusair interpolation
   LHFCALC =     F    Hartree Fock is set to
   LHFONE  =     F    Hartree Fock one center treatment
   AEXX    =    0.0000 exact exchange contribution

 Linear response parameters
   LEPSILON=     F    determine dielectric tensor
   LRPA    =     F    only Hartree local field effects (RPA)
   LNABLA  =     F    use nabla operator in PAW spheres
   LVEL    =     F    velocity operator in full k-point grid
   LINTERFAST=   F  fast interpolation
   KINTER  =     0    interpolate to denser k-point grid
   CSHIFT  =0.1000    complex shift for real part using Kramers Kronig
   OMEGAMAX=  -1.0    maximum frequency
   DEG_THRESHOLD= 0.2000000E-02 threshold for treating states as degnerate
   RTIME   =    0.100 relaxation time in fs

 Orbital magnetization related:
   ORBITALMAG=     F  switch on orbital magnetization
   LCHIMAG   =     F  perturbation theory with respect to B field
   DQ        =  0.001000  dq finite difference perturbation B field



--------------------------------------------------------------------------------------------------------


 conjugate gradient relaxation of ions
   using selective dynamics as specified on POSCAR
 charge density and potential will be updated during run
 spin polarized calculation
 Variant of blocked Davidson
 Davidson routine will perform the subspace rotation
 perform sub-space diagonalisation
    after iterative eigenvector-optimisation
 modified Broyden-mixing scheme, WC =      100.0
 initial mixing is a Kerker type mixing with AMIX =  0.4000 and BMIX =      1.0000
 Hartree-type preconditioning will be used
 using additional bands           55
 real space projection scheme for non local part
 use partial core corrections
 calculate Harris-corrections to forces 
   (improved forces if not selfconsistent)
 use gradient corrections 
 use of overlap-Matrix (Vanderbilt PP)
 Methfessel and Paxton  Order N= 2 SIGMA  =   0.20


--------------------------------------------------------------------------------------------------------


  energy-cutoff  :      400.00
  volume of cell :     1526.12
      direct lattice vectors                 reciprocal lattice vectors
     8.559999890  0.000000000  0.000000000     0.116822431  0.000000000  0.000000000
     0.000000000  8.019998610  0.000000000     0.000000000  0.124688301  0.000000000
     0.000000000  0.000000000 22.230000000     0.000000000  0.000000000  0.044984256

  length of vectors
     8.559999890  8.019998610 22.230000000     0.116822431  0.124688301  0.044984256


 
 k-points in units of 2pi/SCALE and weight:  Automatic mesh                         
   0.00000000  0.00000000  0.00000000       0.111
   0.09618380  0.00000000  0.00000000       0.222
   0.00000000  0.10266003  0.00000000       0.222
   0.09618380  0.10266003  0.00000000       0.222
  -0.09618380  0.10266003  0.00000000       0.222
 
 k-points in reciprocal lattice and weights:  Automatic mesh                         
   0.00000000  0.00000000  0.00000000       0.111
   0.33333333  0.00000000  0.00000000       0.222
   0.00000000  0.33333333  0.00000000       0.222
   0.33333333  0.33333333  0.00000000       0.222
  -0.33333333  0.33333333  0.00000000       0.222
 
 position of ions in fractional coordinates (direct lattice) 
   0.49999899  0.49999954  0.00000000
   0.66670668  0.74999931  0.00000000
   0.49999899  0.00000000  0.00000000
   0.66670668  0.25000008  0.00000000
   0.00000000  0.49999954  0.00000000
   0.16670567  0.74999931  0.00000000
   0.00000000  0.00000000  0.00000000
   0.16670567  0.25000008  0.00000000
   0.74999993  0.49999954  0.05555556
   0.91670473  0.74999931  0.05555556
   0.74999993  0.00000000  0.05555556
   0.91670473  0.25000008  0.05555556
   0.25000007  0.49999954  0.05555556
   0.41670574  0.74999931  0.05555556
   0.25000007  0.00000000  0.05555556
   0.41670574  0.25000008  0.05555556
   0.16498245  0.24921871  0.11165564
   0.00147522  0.99985150  0.11267938
   0.16601435  0.74877328  0.11268405
   0.00322260  0.49993569  0.11244440
   0.66335116  0.24967710  0.11251331
   0.50077044  0.00091181  0.11268035
   0.66528899  0.75000629  0.11268478
   0.50164786  0.50035624  0.11174251
   0.41032023  0.25272675  0.16520755
   0.25650626  0.99979367  0.16298501
   0.41025166  0.74958090  0.16297375
   0.25614313  0.49672843  0.16523769
   0.90943679  0.24975467  0.16266682
   0.75561170  0.99985307  0.16301225
   0.91134552  0.74981029  0.16298542
   0.75714822  0.50006787  0.16265555
   0.33138740  0.37321712  0.21842637
 
 position of ions in cartesian coordinates  (Angst):
   4.27999130  4.00999560  0.00000000
   5.70700910  6.01499340  0.00000000
   4.27999130  0.00000000  0.00000000
   5.70700910  2.00500027  0.00000000
   0.00000000  4.00999560  0.00000000
   1.42700051  6.01499340  0.00000000
   0.00000000  0.00000000  0.00000000
   1.42700051  2.00500027  0.00000000
   6.41999930  4.00999560  1.23500000
   7.84699240  6.01499340  1.23500000
   6.41999930  0.00000000  1.23500000
   7.84699240  2.00500027  1.23500000
   2.14000059  4.00999560  1.23500000
   3.56700110  6.01499340  1.23500000
   2.14000059  0.00000000  1.23500000
   3.56700110  2.00500027  1.23500000
   1.41224978  1.99873370  2.48210490
   0.01262792  8.01880765  2.50486271
   1.42108278  6.00516070  2.50496646
   0.02758546  4.00948355  2.49963909
   5.67828584  2.00241001  2.50117092
   4.28659494  0.00731271  2.50488422
   5.69487372  6.01504938  2.50498258
   4.29410566  4.01285638  2.48403592
   3.51234110  2.02686817  3.67256385
   2.19569356  8.01834387  3.62315668
   3.51175414  6.01163781  3.62290653
   2.19258513  3.98376134  3.67323386
   7.78477882  2.00303208  3.61608335
   6.46803607  8.01882026  3.62376236
   7.80111751  6.01347749  3.62316588
   6.48118864  4.01054363  3.61583277
   2.83667613  2.99320081  4.85561812
 


--------------------------------------------------------------------------------------------------------


 k-point  1 :   0.0000 0.0000 0.0000  plane waves:   27673
 k-point  2 :   0.3333 0.0000 0.0000  plane waves:   27720
 k-point  3 :   0.0000 0.3333 0.0000  plane waves:   27710
 k-point  4 :   0.3333 0.3333 0.0000  plane waves:   27742
 k-point  5 :  -0.3333 0.3333 0.0000  plane waves:   27742

 maximum and minimum number of plane-waves per node :     27742    27673

 maximum number of plane-waves:     27742
 maximum index in each direction: 
   IXMAX=   14   IYMAX=   13   IZMAX=   36
   IXMIN=  -14   IYMIN=  -13   IZMIN=  -36

 WARNING: aliasing errors must be expected set NGX to  58 to avoid them
 WARNING: aliasing errors must be expected set NGY to  54 to avoid them
 WARNING: aliasing errors must be expected set NGZ to 146 to avoid them
 aliasing errors are usually negligible using standard VASP settings
 and one can safely disregard these warnings

 serial   3D FFT for wavefunctions
 parallel 3D FFT for charge:
    minimum data exchange during FFTs selected (reduces bandwidth)


 total amount of memory used by VASP on root node   189566. kBytes
========================================================================

   base      :      30000. kBytes
   nonlr-proj:       6873. kBytes
   fftplans  :       7367. kBytes
   grid      :      30988. kBytes
   one-center:       1026. kBytes
   wavefun   :     113312. kBytes
 
     INWAV:  cpu time    0.00: real time    0.00
 Broyden mixing: mesh for mixing (old mesh)
   NGX = 27   NGY = 27   NGZ = 73
  (NGX  = 84   NGY  = 80   NGZ  =224)
  gives a total of  53217 points

 initial charge density was supplied:
 charge density of overlapping atoms calculated
 number of electron     289.0000000 magnetization      52.1600000
 keeping initial charge density in first step


--------------------------------------------------------------------------------------------------------


 Maximum index for non-local projection operator         1221
 Maximum index for augmentation-charges          778 (set IRDMAX)


--------------------------------------------------------------------------------------------------------


 First call to EWALD:  gamma=   0.154
 Maximum number of real-space cells 4x 4x 2
 Maximum number of reciprocal cells 2x 2x 5

 FEWALD executed in parallel
    FEWALD:  cpu time    0.00: real time    0.00


----------------------------------------- Iteration    1(   1)  ---------------------------------------


    POTLOK:  cpu time    0.42: real time    0.42
    SETDIJ:  cpu time    0.04: real time    0.04
     EDDAV:  cpu time   21.45: real time   21.47
       DOS:  cpu time    0.00: real time    0.00
    --------------------------------------------
      LOOP:  cpu time   21.92: real time   21.94

 eigenvalue-minimisations  :  4000
 total energy-change (2. order) : 0.1893962E+04  (-0.1013103E+05)
 number of electron     289.0000000 magnetization      52.1600000
 augmentation part      289.0000000 magnetization      52.1600000

 Free energy of the ion-electron system (eV)
  ---------------------------------------------------
  alpha Z        PSCENC =       285.66169894
  Ewald energy   TEWEN  =    102188.64837870
  -Hartree energ DENC   =   -126557.23827878
  -exchange      EXHF   =         0.00000000
  -V(xc)+E(xc)   XCENC  =       532.52533765
  PAW double counting   =     23064.93713537   -24761.13771446
  entropy T*S    EENTRO =        -0.00733686
  eigenvalues    EBANDS =      1100.64618387
  atomic energy  EATOM  =     26039.92612388
  Solvation contrib.  Ediel  =         0.00000000
  ---------------------------------------------------
  free energy    TOTEN  =      1893.96152831 eV

  energy without entropy =     1893.96886517  energy(sigma->0) =     1893.96336253


--------------------------------------------------------------------------------------------------------




----------------------------------------- Iteration    1(   2)  ---------------------------------------


     EDDAV:  cpu time   20.50: real time   20.51
       DOS:  cpu time    0.00: real time    0.00
    --------------------------------------------
      LOOP:  cpu time   20.51: real time   20.51

 eigenvalue-minimisations  :  4048
 total energy-change (2. order) :-0.2001648E+04  (-0.1878681E+04)
 number of electron     289.0000000 magnetization      52.1600000
 augmentation part      289.0000000 magnetization      52.1600000

 Free energy of the ion-electron system (eV)
  ---------------------------------------------------
  alpha Z        PSCENC =       285.66169894
  Ewald energy   TEWEN  =    102188.64837870
  -Hartree energ DENC   =   -126557.23827878
  -exchange      EXHF   =         0.00000000
  -V(xc)+E(xc)   XCENC  =       532.52533765
  PAW double counting   =     23064.93713537   -24761.13771446
  entropy T*S    EENTRO =         0.00577368
  eigenvalues    EBANDS =      -901.01443393
  atomic energy  EATOM  =     26039.92612388
  Solvation contrib.  Ediel  =         0.00000000
  ---------------------------------------------------
  free energy    TOTEN  =      -107.68597895 eV

  energy without entropy =     -107.69175263  energy(sigma->0) =     -107.68742237


--------------------------------------------------------------------------------------------------------




----------------------------------------- Iteration    1(   3)  ---------------------------------------


     EDDAV:  cpu time   22.52: real time   22.52
       DOS:  cpu time    0.00: real time    0.00
    --------------------------------------------
      LOOP:  cpu time   22.52: real time   22.52

 eigenvalue-minimisations  :  4304
 total energy-change (2. order) :-0.1255031E+03  (-0.1154482E+03)
 number of electron     289.0000000 magnetization      52.1600000
 augmentation part      289.0000000 magnetization      52.1600000

 Free energy of the ion-electron system (eV)
  ---------------------------------------------------
  alpha Z        PSCENC =       285.66169894
  Ewald energy   TEWEN  =    102188.64837870
  -Hartree energ DENC   =   -126557.23827878
  -exchange      EXHF   =         0.00000000
  -V(xc)+E(xc)   XCENC  =       532.52533765
  PAW double counting   =     23064.93713537   -24761.13771446
  entropy T*S    EENTRO =        -0.04728137
  eigenvalues    EBANDS =     -1026.46443864
  atomic energy  EATOM  =     26039.92612388
  Solvation contrib.  Ediel  =         0.00000000
  ---------------------------------------------------
  free energy    TOTEN  =      -233.18903871 eV

  energy without entropy =     -233.14175734  energy(sigma->0) =     -233.17721836


--------------------------------------------------------------------------------------------------------




----------------------------------------- Iteration    1(   4)  ---------------------------------------


     EDDAV:  cpu time   30.89: real time   30.90
       DOS:  cpu time    0.00: real time    0.00
    --------------------------------------------
      LOOP:  cpu time   30.90: real time   30.90

 eigenvalue-minimisations  :  4296
 total energy-change (2. order) :-0.3854283E+01  (-0.3784485E+01)
 number of electron     289.0000000 magnetization      52.1600000
 augmentation part      289.0000000 magnetization      52.1600000

 Free energy of the ion-electron system (eV)
  ---------------------------------------------------
  alpha Z        PSCENC =       285.66169894
  Ewald energy   TEWEN  =    102188.64837870
  -Hartree energ DENC   =   -126557.23827878
  -exchange      EXHF   =         0.00000000
  -V(xc)+E(xc)   XCENC  =       532.52533765
  PAW double counting   =     23064.93713537   -24761.13771446
  entropy T*S    EENTRO =        -0.04437720
  eigenvalues    EBANDS =     -1030.32162534
  atomic energy  EATOM  =     26039.92612388
  Solvation contrib.  Ediel  =         0.00000000
  ---------------------------------------------------
  free energy    TOTEN  =      -237.04332123 eV

  energy without entropy =     -236.99894403  energy(sigma->0) =     -237.03222693


--------------------------------------------------------------------------------------------------------




----------------------------------------- Iteration    1(   5)  ---------------------------------------


     EDDAV:  cpu time   36.36: real time   36.37
       DOS:  cpu time    0.00: real time    0.00
    CHARGE:  cpu time    1.31: real time    1.31
    MIXING:  cpu time    0.01: real time    0.01
    --------------------------------------------
      LOOP:  cpu time   37.68: real time   37.69

 eigenvalue-minimisations  :  5056
 total energy-change (2. order) :-0.1270903E+00  (-0.1269448E+00)
 number of electron     289.0000740 magnetization      52.7171769
 augmentation part      149.5075235 magnetization      38.7482107

 Broyden mixing:
  rms(total) = 0.58928E+01    rms(broyden)= 0.58927E+01
  rms(prec ) = 0.61708E+01
  weight for this iteration     100.00

 Free energy of the ion-electron system (eV)
  ---------------------------------------------------
  alpha Z        PSCENC =       285.66169894
  Ewald energy   TEWEN  =    102188.64837870
  -Hartree energ DENC   =   -126557.23827878
  -exchange      EXHF   =         0.00000000
  -V(xc)+E(xc)   XCENC  =       532.52533765
  PAW double counting   =     23064.93713537   -24761.13771446
  entropy T*S    EENTRO =        -0.04424100
  eigenvalues    EBANDS =     -1030.44885188
  atomic energy  EATOM  =     26039.92612388
  Solvation contrib.  Ediel  =         0.00000000
  ---------------------------------------------------
  free energy    TOTEN  =      -237.17041158 eV

  energy without entropy =     -237.12617058  energy(sigma->0) =     -237.15935133


--------------------------------------------------------------------------------------------------------




----------------------------------------- Iteration    1(   6)  ---------------------------------------


    POTLOK:  cpu time    0.44: real time    0.44
    SETDIJ:  cpu time    0.04: real time    0.05
     EDDAV:  cpu time   27.29: real time   27.29
       DOS:  cpu time    0.00: real time    0.00
    CHARGE:  cpu time    1.42: real time    1.43
    MIXING:  cpu time    0.01: real time    0.01
    --------------------------------------------
      LOOP:  cpu time   29.21: real time   29.21

 eigenvalue-minimisations  :  4576
 total energy-change (2. order) :-0.5781238E+02  (-0.3192328E+02)
 number of electron     289.0000627 magnetization      52.0931756
 augmentation part      166.6872070 magnetization      47.9619712

 Broyden mixing:
  rms(total) = 0.12852E+02    rms(broyden)= 0.12851E+02
  rms(prec ) = 0.13804E+02
  weight for this iteration     100.00

 eigenvalues of (default mixing * dielectric matrix)
  average eigenvalue GAMMA=   0.2543
  0.2543

 Free energy of the ion-electron system (eV)
  ---------------------------------------------------
  alpha Z        PSCENC =       285.66169894
  Ewald energy   TEWEN  =    102188.64837870
  -Hartree energ DENC   =   -126213.20178373
  -exchange      EXHF   =         0.00000000
  -V(xc)+E(xc)   XCENC  =       516.62974641
  PAW double counting   =     24960.30189075   -26507.53388235
  entropy T*S    EENTRO =         0.04324709
  eigenvalues    EBANDS =     -1565.45820806
  atomic energy  EATOM  =     26039.92612388
  Solvation contrib.  Ediel  =         0.00000000
  ---------------------------------------------------
  free energy    TOTEN  =      -294.98278837 eV

  energy without entropy =     -295.02603546  energy(sigma->0) =     -294.99360015


--------------------------------------------------------------------------------------------------------




----------------------------------------- Iteration    1(   7)  ---------------------------------------


    POTLOK:  cpu time    0.43: real time    0.43
    SETDIJ:  cpu time    0.05: real time    0.05
     EDDAV:  cpu time   26.38: real time   26.39
       DOS:  cpu time    0.00: real time    0.00
    CHARGE:  cpu time    1.32: real time    1.32
    MIXING:  cpu time    0.01: real time    0.01
    --------------------------------------------
      LOOP:  cpu time   28.19: real time   28.19

 eigenvalue-minimisations  :  4392
 total energy-change (2. order) : 0.6017014E+02  (-0.2362575E+02)
 number of electron     289.0000922 magnetization      51.8039736
 augmentation part      172.7991737 magnetization      41.5768392

 Broyden mixing:
  rms(total) = 0.70196E+01    rms(broyden)= 0.70188E+01
  rms(prec ) = 0.75847E+01
  weight for this iteration     100.00

 eigenvalues of (default mixing * dielectric matrix)
  average eigenvalue GAMMA=   0.3731
  0.5999  0.1463

 Free energy of the ion-electron system (eV)
  ---------------------------------------------------
  alpha Z        PSCENC =       285.66169894
  Ewald energy   TEWEN  =    102188.64837870
  -Hartree energ DENC   =   -126132.41640438
  -exchange      EXHF   =         0.00000000
  -V(xc)+E(xc)   XCENC  =       510.93057967
  PAW double counting   =     25366.47804332   -26935.33370207
  entropy T*S    EENTRO =         0.04898383
  eigenvalues    EBANDS =     -1558.75635118
  atomic energy  EATOM  =     26039.92612388
  Solvation contrib.  Ediel  =         0.00000000
  ---------------------------------------------------
  free energy    TOTEN  =      -234.81264929 eV

  energy without entropy =     -234.86163312  energy(sigma->0) =     -234.82489525


--------------------------------------------------------------------------------------------------------




----------------------------------------- Iteration    1(   8)  ---------------------------------------


    POTLOK:  cpu time    0.44: real time    0.44
    SETDIJ:  cpu time    0.05: real time    0.05
     EDDAV:  cpu time   27.76: real time   27.76
       DOS:  cpu time    0.00: real time    0.00
    CHARGE:  cpu time    1.34: real time    1.34
    MIXING:  cpu time    0.01: real time    0.01
    --------------------------------------------
      LOOP:  cpu time   29.60: real time   29.60

 eigenvalue-minimisations  :  4680
 total energy-change (2. order) : 0.2072607E+02  (-0.8000130E+01)
 number of electron     289.0000736 magnetization      51.7317797
 augmentation part      167.3309468 magnetization      42.1681819

 Broyden mixing:
  rms(total) = 0.55559E+01    rms(broyden)= 0.55553E+01
  rms(prec ) = 0.62409E+01
  weight for this iteration     100.00

 eigenvalues of (default mixing * dielectric matrix)
  average eigenvalue GAMMA=   0.3863
  0.7698  0.2391  0.1501

 Free energy of the ion-electron system (eV)
  ---------------------------------------------------
  alpha Z        PSCENC =       285.66169894
  Ewald energy   TEWEN  =    102188.64837870
  -Hartree energ DENC   =   -126377.93360452
  -exchange      EXHF   =         0.00000000
  -V(xc)+E(xc)   XCENC  =       515.09327078
  PAW double counting   =     26378.90290577   -28021.63951805
  entropy T*S    EENTRO =         0.03944662
  eigenvalues    EBANDS =     -1222.78528611
  atomic energy  EATOM  =     26039.92612388
  Solvation contrib.  Ediel  =         0.00000000
  ---------------------------------------------------
  free energy    TOTEN  =      -214.08658398 eV

  energy without entropy =     -214.12603060  energy(sigma->0) =     -214.09644563


--------------------------------------------------------------------------------------------------------




----------------------------------------- Iteration    1(   9)  ---------------------------------------


    POTLOK:  cpu time    0.43: real time    0.43
    SETDIJ:  cpu time    0.05: real time    0.05
     EDDAV:  cpu time   30.32: real time   30.32
       DOS:  cpu time    0.00: real time    0.00
    CHARGE:  cpu time    1.34: real time    1.34
    MIXING:  cpu time    0.01: real time    0.01
    --------------------------------------------
      LOOP:  cpu time   32.15: real time   32.15

 eigenvalue-minimisations  :  5216
 total energy-change (2. order) :-0.2252682E+02  (-0.5225386E+01)
 number of electron     289.0000915 magnetization      51.3238247
 augmentation part      164.3037039 magnetization      44.9348174

 Broyden mixing:
  rms(total) = 0.83812E+01    rms(broyden)= 0.83807E+01
  rms(prec ) = 0.10131E+02
  weight for this iteration     100.00

 eigenvalues of (default mixing * dielectric matrix)
  average eigenvalue GAMMA=   0.3939
  0.7750  0.5413  0.1296  0.1296

 Free energy of the ion-electron system (eV)
  ---------------------------------------------------
  alpha Z        PSCENC =       285.66169894
  Ewald energy   TEWEN  =    102188.64837870
  -Hartree energ DENC   =   -126444.46772560
  -exchange      EXHF   =         0.00000000
  -V(xc)+E(xc)   XCENC  =       517.23254166
  PAW double counting   =     26788.59364344   -28456.95955959
  entropy T*S    EENTRO =        -0.03000527
  eigenvalues    EBANDS =     -1155.21850470
  atomic energy  EATOM  =     26039.92612388
  Solvation contrib.  Ediel  =         0.00000000
  ---------------------------------------------------
  free energy    TOTEN  =      -236.61340855 eV

  energy without entropy =     -236.58340327  energy(sigma->0) =     -236.60590723


--------------------------------------------------------------------------------------------------------




----------------------------------------- Iteration    1(  10)  ---------------------------------------


    POTLOK:  cpu time    0.44: real time    0.44
    SETDIJ:  cpu time    0.05: real time    0.05
     EDDAV:  cpu time   30.08: real time   30.09
       DOS:  cpu time    0.00: real time    0.00
    CHARGE:  cpu time    1.33: real time    1.33
    MIXING:  cpu time    0.01: real time    0.01
    --------------------------------------------
      LOOP:  cpu time   31.91: real time   31.92

 eigenvalue-minimisations  :  5176
 total energy-change (2. order) : 0.1308608E+02  (-0.4299044E+01)
 number of electron     289.0000587 magnetization      51.0861222
 augmentation part      163.4497067 magnetization      43.9653937

 Broyden mixing:
  rms(total) = 0.68900E+01    rms(broyden)= 0.68895E+01
  rms(prec ) = 0.78739E+01
  weight for this iteration     100.00

 eigenvalues of (default mixing * dielectric matrix)
  average eigenvalue GAMMA=   0.3549
  0.6939  0.6939  0.1567  0.1567  0.0730

 Free energy of the ion-electron system (eV)
  ---------------------------------------------------
  alpha Z        PSCENC =       285.66169894
  Ewald energy   TEWEN  =    102188.64837870
  -Hartree energ DENC   =   -126483.18206709
  -exchange      EXHF   =         0.00000000
  -V(xc)+E(xc)   XCENC  =       516.26438848
  PAW double counting   =     27118.24089294   -28801.03913075
  entropy T*S    EENTRO =         0.00253169
  eigenvalues    EBANDS =     -1088.05014212
  atomic energy  EATOM  =     26039.92612388
  Solvation contrib.  Ediel  =         0.00000000
  ---------------------------------------------------
  free energy    TOTEN  =      -223.52732532 eV

  energy without entropy =     -223.52985702  energy(sigma->0) =     -223.52795825


--------------------------------------------------------------------------------------------------------




----------------------------------------- Iteration    1(  11)  ---------------------------------------


    POTLOK:  cpu time    0.44: real time    0.44
    SETDIJ:  cpu time    0.05: real time    0.05
     EDDAV:  cpu time   29.23: real time   29.24
       DOS:  cpu time    0.00: real time    0.00
    CHARGE:  cpu time    1.34: real time    1.34
    MIXING:  cpu time    0.01: real time    0.01
    --------------------------------------------
      LOOP:  cpu time   31.08: real time   31.08

 eigenvalue-minimisations  :  4992
 total energy-change (2. order) : 0.1499399E+02  (-0.2318646E+01)
 number of electron     289.0000730 magnetization      51.0042866
 augmentation part      164.1290121 magnetization      40.9556238

 Broyden mixing:
  rms(total) = 0.36005E+01    rms(broyden)= 0.36002E+01
  rms(prec ) = 0.40021E+01
  weight for this iteration     100.00

 eigenvalues of (default mixing * dielectric matrix)
  average eigenvalue GAMMA=   0.3816
  0.9821  0.4837  0.4837  0.1535  0.0933  0.0933

 Free energy of the ion-electron system (eV)
  ---------------------------------------------------
  alpha Z        PSCENC =       285.66169894
  Ewald energy   TEWEN  =    102188.64837870
  -Hartree energ DENC   =   -126464.63751819
  -exchange      EXHF   =         0.00000000
  -V(xc)+E(xc)   XCENC  =       515.79950377
  PAW double counting   =     27198.39703107   -28881.79280228
  entropy T*S    EENTRO =         0.00791991
  eigenvalues    EBANDS =     -1090.54367167
  atomic energy  EATOM  =     26039.92612388
  Solvation contrib.  Ediel  =         0.00000000
  ---------------------------------------------------
  free energy    TOTEN  =      -208.53333587 eV

  energy without entropy =     -208.54125578  energy(sigma->0) =     -208.53531585


--------------------------------------------------------------------------------------------------------




----------------------------------------- Iteration    1(  12)  ---------------------------------------


    POTLOK:  cpu time    0.44: real time    0.44
    SETDIJ:  cpu time    0.05: real time    0.05
     EDDAV:  cpu time   27.91: real time   27.91
       DOS:  cpu time    0.00: real time    0.00
    CHARGE:  cpu time    1.35: real time    1.35
    MIXING:  cpu time    0.01: real time    0.01
    --------------------------------------------
      LOOP:  cpu time   29.76: real time   29.76

 eigenvalue-minimisations  :  4720
 total energy-change (2. order) : 0.9651117E+00  (-0.1176171E+01)
 number of electron     289.0000756 magnetization      50.9522230
 augmentation part      164.2751719 magnetization      41.0750380

 Broyden mixing:
  rms(total) = 0.34386E+01    rms(broyden)= 0.34383E+01
  rms(prec ) = 0.38373E+01
  weight for this iteration     100.00

 eigenvalues of (default mixing * dielectric matrix)
  average eigenvalue GAMMA=   0.3877
  1.1981  0.5301  0.5301  0.1495  0.1115  0.1115  0.0828

 Free energy of the ion-electron system (eV)
  ---------------------------------------------------
  alpha Z        PSCENC =       285.66169894
  Ewald energy   TEWEN  =    102188.64837870
  -Hartree energ DENC   =   -126464.36098232
  -exchange      EXHF   =         0.00000000
  -V(xc)+E(xc)   XCENC  =       516.48199249
  PAW double counting   =     27408.04316944   -29095.65475752
  entropy T*S    EENTRO =        -0.01201650
  eigenvalues    EBANDS =     -1086.30183130
  atomic energy  EATOM  =     26039.92612388
  Solvation contrib.  Ediel  =         0.00000000
  ---------------------------------------------------
  free energy    TOTEN  =      -207.56822419 eV

  energy without entropy =     -207.55620769  energy(sigma->0) =     -207.56522007


--------------------------------------------------------------------------------------------------------




----------------------------------------- Iteration    1(  13)  ---------------------------------------


    POTLOK:  cpu time    0.44: real time    0.43
    SETDIJ:  cpu time    0.04: real time    0.05
     EDDAV:  cpu time   25.87: real time   25.87
       DOS:  cpu time    0.00: real time    0.00
    CHARGE:  cpu time    1.35: real time    1.35
    MIXING:  cpu time    0.01: real time    0.01
    --------------------------------------------
      LOOP:  cpu time   27.72: real time   27.72

 eigenvalue-minimisations  :  4288
 total energy-change (2. order) : 0.3143192E+01  (-0.7614375E+00)
 number of electron     289.0000785 magnetization      51.0080181
 augmentation part      163.9727472 magnetization      41.0232196

 Broyden mixing:
  rms(total) = 0.16822E+01    rms(broyden)= 0.16817E+01
  rms(prec ) = 0.17918E+01
  weight for this iteration     100.00

 eigenvalues of (default mixing * dielectric matrix)
  average eigenvalue GAMMA=   0.3598
  1.2500  0.5103  0.5103  0.1494  0.1494  0.1386  0.0888  0.0814

 Free energy of the ion-electron system (eV)
  ---------------------------------------------------
  alpha Z        PSCENC =       285.66169894
  Ewald energy   TEWEN  =    102188.64837870
  -Hartree energ DENC   =   -126470.62447230
  -exchange      EXHF   =         0.00000000
  -V(xc)+E(xc)   XCENC  =       517.02365342
  PAW double counting   =     27607.78047739   -29299.75943362
  entropy T*S    EENTRO =        -0.05730649
  eigenvalues    EBANDS =     -1073.02415241
  atomic energy  EATOM  =     26039.92612388
  Solvation contrib.  Ediel  =         0.00000000
  ---------------------------------------------------
  free energy    TOTEN  =      -204.42503249 eV

  energy without entropy =     -204.36772600  energy(sigma->0) =     -204.41070586


--------------------------------------------------------------------------------------------------------




----------------------------------------- Iteration    1(  14)  ---------------------------------------


    POTLOK:  cpu time    0.44: real time    0.44
    SETDIJ:  cpu time    0.05: real time    0.05
     EDDAV:  cpu time   29.82: real time   29.82
       DOS:  cpu time    0.00: real time    0.00
    CHARGE:  cpu time    1.34: real time    1.34
    MIXING:  cpu time    0.01: real time    0.01
    --------------------------------------------
      LOOP:  cpu time   31.66: real time   31.66

 eigenvalue-minimisations  :  5096
 total energy-change (2. order) :-0.2644941E+00  (-0.2484354E+00)
 number of electron     289.0000781 magnetization      51.0543468
 augmentation part      163.8396558 magnetization      41.5089924

 Broyden mixing:
  rms(total) = 0.14107E+01    rms(broyden)= 0.14106E+01
  rms(prec ) = 0.14665E+01
  weight for this iteration     100.00

 eigenvalues of (default mixing * dielectric matrix)
  average eigenvalue GAMMA=   0.3201
  1.2506  0.5098  0.5098  0.1492  0.1492  0.1393  0.0886  0.0813  0.0031

 Free energy of the ion-electron system (eV)
  ---------------------------------------------------
  alpha Z        PSCENC =       285.66169894
  Ewald energy   TEWEN  =    102188.64837870
  -Hartree energ DENC   =   -126475.18677384
  -exchange      EXHF   =         0.00000000
  -V(xc)+E(xc)   XCENC  =       517.13335111
  PAW double counting   =     27670.59252842   -29363.50009218
  entropy T*S    EENTRO =        -0.06442816
  eigenvalues    EBANDS =     -1067.90031350
  atomic energy  EATOM  =     26039.92612388
  Solvation contrib.  Ediel  =         0.00000000
  ---------------------------------------------------
  free energy    TOTEN  =      -204.68952663 eV

  energy without entropy =     -204.62509846  energy(sigma->0) =     -204.67341959


--------------------------------------------------------------------------------------------------------




----------------------------------------- Iteration    1(  15)  ---------------------------------------


    POTLOK:  cpu time    0.42: real time    0.42
    SETDIJ:  cpu time    0.04: real time    0.05
     EDDAV:  cpu time   25.46: real time   25.47
       DOS:  cpu time    0.00: real time    0.00
    CHARGE:  cpu time    1.32: real time    1.32
    MIXING:  cpu time    0.02: real time    0.01
    --------------------------------------------
      LOOP:  cpu time   27.26: real time   27.26

 eigenvalue-minimisations  :  4200
 total energy-change (2. order) :-0.1634805E+00  (-0.6029154E-01)
 number of electron     289.0000780 magnetization      51.0118221
 augmentation part      163.7865262 magnetization      41.7282542

 Broyden mixing:
  rms(total) = 0.12493E+01    rms(broyden)= 0.12493E+01
  rms(prec ) = 0.12827E+01
  weight for this iteration     100.00

 eigenvalues of (default mixing * dielectric matrix)
  average eigenvalue GAMMA=   0.3503
  1.2450  0.5393  0.5393  0.3596  0.2708  0.1522  0.1181  0.0837  0.0975  0.0975

 Free energy of the ion-electron system (eV)
  ---------------------------------------------------
  alpha Z        PSCENC =       285.66169894
  Ewald energy   TEWEN  =    102188.64837870
  -Hartree energ DENC   =   -126476.86624572
  -exchange      EXHF   =         0.00000000
  -V(xc)+E(xc)   XCENC  =       517.15787164
  PAW double counting   =     27698.35175469   -29391.48532831
  entropy T*S    EENTRO =        -0.06732683
  eigenvalues    EBANDS =     -1066.17993416
  atomic energy  EATOM  =     26039.92612388
  Solvation contrib.  Ediel  =         0.00000000
  ---------------------------------------------------
  free energy    TOTEN  =      -204.85300717 eV

  energy without entropy =     -204.78568034  energy(sigma->0) =     -204.83617546


--------------------------------------------------------------------------------------------------------




----------------------------------------- Iteration    1(  16)  ---------------------------------------


    POTLOK:  cpu time    0.44: real time    0.44
    SETDIJ:  cpu time    0.05: real time    0.05
     EDDAV:  cpu time   31.39: real time   31.39
       DOS:  cpu time    0.00: real time    0.00
    CHARGE:  cpu time    1.31: real time    1.31
    MIXING:  cpu time    0.02: real time    0.01
    --------------------------------------------
      LOOP:  cpu time   33.20: real time   33.21

 eigenvalue-minimisations  :  5440
 total energy-change (2. order) : 0.1432555E+00  (-0.9058229E-02)
 number of electron     289.0000780 magnetization      50.9940135
 augmentation part      163.7530158 magnetization      41.6681216

 Broyden mixing:
  rms(total) = 0.13559E+01    rms(broyden)= 0.13559E+01
  rms(prec ) = 0.13975E+01
  weight for this iteration     100.00

 eigenvalues of (default mixing * dielectric matrix)
  average eigenvalue GAMMA=   0.3431
  1.2406  0.5312  0.5472  0.5472  0.2908  0.1524  0.1174  0.0953  0.0953  0.0851
  0.0717

 Free energy of the ion-electron system (eV)
  ---------------------------------------------------
  alpha Z        PSCENC =       285.66169894
  Ewald energy   TEWEN  =    102188.64837870
  -Hartree energ DENC   =   -126476.57746602
  -exchange      EXHF   =         0.00000000
  -V(xc)+E(xc)   XCENC  =       517.13492701
  PAW double counting   =     27695.30018267   -29388.44165657
  entropy T*S    EENTRO =        -0.06990645
  eigenvalues    EBANDS =     -1066.29203380
  atomic energy  EATOM  =     26039.92612388
  Solvation contrib.  Ediel  =         0.00000000
  ---------------------------------------------------
  free energy    TOTEN  =      -204.70975164 eV

  energy without entropy =     -204.63984519  energy(sigma->0) =     -204.69227502


--------------------------------------------------------------------------------------------------------




----------------------------------------- Iteration    1(  17)  ---------------------------------------


    POTLOK:  cpu time    0.44: real time    0.44
    SETDIJ:  cpu time    0.05: real time    0.05
     EDDAV:  cpu time   25.90: real time   25.90
       DOS:  cpu time    0.00: real time    0.00
    CHARGE:  cpu time    1.28: real time    1.28
    MIXING:  cpu time    0.02: real time    0.02
    --------------------------------------------
      LOOP:  cpu time   27.68: real time   27.68

 eigenvalue-minimisations  :  4288
 total energy-change (2. order) : 0.8993482E-01  (-0.4290483E-02)
 number of electron     289.0000780 magnetization      51.3568962
 augmentation part      163.7255190 magnetization      42.0040872

 Broyden mixing:
  rms(total) = 0.13504E+01    rms(broyden)= 0.13504E+01
  rms(prec ) = 0.13884E+01
  weight for this iteration     100.00

 eigenvalues of (default mixing * dielectric matrix)
  average eigenvalue GAMMA=   0.4042
  1.2603  0.7131  0.7131  0.5599  0.5599  0.3842  0.1506  0.1189  0.1083  0.1083
  0.0829  0.0905

 Free energy of the ion-electron system (eV)
  ---------------------------------------------------
  alpha Z        PSCENC =       285.66169894
  Ewald energy   TEWEN  =    102188.64837870
  -Hartree energ DENC   =   -126476.64602921
  -exchange      EXHF   =         0.00000000
  -V(xc)+E(xc)   XCENC  =       517.13181184
  PAW double counting   =     27693.54528869   -29386.71944756
  entropy T*S    EENTRO =        -0.07102368
  eigenvalues    EBANDS =     -1066.09661842
  atomic energy  EATOM  =     26039.92612388
  Solvation contrib.  Ediel  =         0.00000000
  ---------------------------------------------------
  free energy    TOTEN  =      -204.61981682 eV

  energy without entropy =     -204.54879313  energy(sigma->0) =     -204.60206089


--------------------------------------------------------------------------------------------------------




----------------------------------------- Iteration    1(  18)  ---------------------------------------


    POTLOK:  cpu time    0.44: real time    0.44
    SETDIJ:  cpu time    0.05: real time    0.05
     EDDAV:  cpu time   28.87: real time   28.87
       DOS:  cpu time    0.00: real time    0.00
    CHARGE:  cpu time    1.28: real time    1.28
    MIXING:  cpu time    0.02: real time    0.02
    --------------------------------------------
      LOOP:  cpu time   30.65: real time   30.66

 eigenvalue-minimisations  :  4912
 total energy-change (2. order) :-0.1488963E+01  (-0.7637742E-01)
 number of electron     289.0000780 magnetization      51.6112924
 augmentation part      163.9335727 magnetization      42.7132892

 Broyden mixing:
  rms(total) = 0.14608E+01    rms(broyden)= 0.14608E+01
  rms(prec ) = 0.15393E+01
  weight for this iteration     100.00

 eigenvalues of (default mixing * dielectric matrix)
  average eigenvalue GAMMA=   0.4175
  1.2971  0.8794  0.8794  0.5865  0.5865  0.4039  0.1508  0.1265  0.1265  0.1079
  0.1079  0.0833  0.0911

 Free energy of the ion-electron system (eV)
  ---------------------------------------------------
  alpha Z        PSCENC =       285.66169894
  Ewald energy   TEWEN  =    102188.64837870
  -Hartree energ DENC   =   -126475.82331965
  -exchange      EXHF   =         0.00000000
  -V(xc)+E(xc)   XCENC  =       516.97242608
  PAW double counting   =     27784.49548349   -29477.26049097
  entropy T*S    EENTRO =        -0.05660196
  eigenvalues    EBANDS =     -1068.67247870
  atomic energy  EATOM  =     26039.92612388
  Solvation contrib.  Ediel  =         0.00000000
  ---------------------------------------------------
  free energy    TOTEN  =      -206.10878019 eV

  energy without entropy =     -206.05217823  energy(sigma->0) =     -206.09462970


--------------------------------------------------------------------------------------------------------




----------------------------------------- Iteration    1(  19)  ---------------------------------------


    POTLOK:  cpu time    0.44: real time    0.44
    SETDIJ:  cpu time    0.05: real time    0.05
     EDDAV:  cpu time   27.92: real time   27.92
       DOS:  cpu time    0.00: real time    0.00
    CHARGE:  cpu time    1.27: real time    1.27
    MIXING:  cpu time    0.02: real time    0.02
    --------------------------------------------
      LOOP:  cpu time   29.70: real time   29.70

 eigenvalue-minimisations  :  4712
 total energy-change (2. order) :-0.2884421E+00  (-0.9850711E-01)
 number of electron     289.0000785 magnetization      52.0846094
 augmentation part      164.0870197 magnetization      43.5423846

 Broyden mixing:
  rms(total) = 0.11274E+01    rms(broyden)= 0.11273E+01
  rms(prec ) = 0.11802E+01
  weight for this iteration     100.00

 eigenvalues of (default mixing * dielectric matrix)
  average eigenvalue GAMMA=   0.4434
  1.3242  1.0816  1.0816  0.6195  0.6195  0.3500  0.3500  0.1500  0.1354  0.1098
  0.1098  0.0830  0.1022  0.0907

 Free energy of the ion-electron system (eV)
  ---------------------------------------------------
  alpha Z        PSCENC =       285.66169894
  Ewald energy   TEWEN  =    102188.64837870
  -Hartree energ DENC   =   -126475.67376631
  -exchange      EXHF   =         0.00000000
  -V(xc)+E(xc)   XCENC  =       516.99827120
  PAW double counting   =     27856.45760729   -29549.13920789
  entropy T*S    EENTRO =        -0.05298132
  eigenvalues    EBANDS =     -1069.22334675
  atomic energy  EATOM  =     26039.92612388
  Solvation contrib.  Ediel  =         0.00000000
  ---------------------------------------------------
  free energy    TOTEN  =      -206.39722226 eV

  energy without entropy =     -206.34424094  energy(sigma->0) =     -206.38397693


--------------------------------------------------------------------------------------------------------




----------------------------------------- Iteration    1(  20)  ---------------------------------------


    POTLOK:  cpu time    0.44: real time    0.44
    SETDIJ:  cpu time    0.04: real time    0.05
     EDDAV:  cpu time   30.44: real time   30.44
       DOS:  cpu time    0.00: real time    0.00
    CHARGE:  cpu time    1.30: real time    1.30
    MIXING:  cpu time    0.02: real time    0.02
    --------------------------------------------
      LOOP:  cpu time   32.24: real time   32.25

 eigenvalue-minimisations  :  5240
 total energy-change (2. order) :-0.4803763E+00  (-0.8121361E-01)
 number of electron     289.0000787 magnetization      52.2964031
 augmentation part      164.3990909 magnetization      44.2677937

 Broyden mixing:
  rms(total) = 0.97350E+00    rms(broyden)= 0.97347E+00
  rms(prec ) = 0.10270E+01
  weight for this iteration     100.00

 eigenvalues of (default mixing * dielectric matrix)
  average eigenvalue GAMMA=   0.4300
  1.3013  1.1341  1.1341  0.6247  0.6247  0.3452  0.3452  0.1722  0.1519  0.0831
  0.1145  0.1145  0.1065  0.1065  0.0906

 Free energy of the ion-electron system (eV)
  ---------------------------------------------------
  alpha Z        PSCENC =       285.66169894
  Ewald energy   TEWEN  =    102188.64837870
  -Hartree energ DENC   =   -126475.83554164
  -exchange      EXHF   =         0.00000000
  -V(xc)+E(xc)   XCENC  =       517.53527127
  PAW double counting   =     27925.08466172   -29617.38372556
  entropy T*S    EENTRO =        -0.04976190
  eigenvalues    EBANDS =     -1070.46470401
  atomic energy  EATOM  =     26039.92612388
  Solvation contrib.  Ediel  =         0.00000000
  ---------------------------------------------------
  free energy    TOTEN  =      -206.87759859 eV

  energy without entropy =     -206.82783669  energy(sigma->0) =     -206.86515812


--------------------------------------------------------------------------------------------------------




----------------------------------------- Iteration    1(  21)  ---------------------------------------


    POTLOK:  cpu time    0.44: real time    0.44
    SETDIJ:  cpu time    0.04: real time    0.05
     EDDAV:  cpu time   26.28: real time   26.28
       DOS:  cpu time    0.00: real time    0.00
    CHARGE:  cpu time    1.36: real time    1.36
    MIXING:  cpu time    0.02: real time    0.02
    --------------------------------------------
      LOOP:  cpu time   28.15: real time   28.15

 eigenvalue-minimisations  :  4352
 total energy-change (2. order) : 0.1241935E+00  (-0.4152584E-01)
 number of electron     289.0000784 magnetization      52.6956283
 augmentation part      164.5451002 magnetization      44.8763228

 Broyden mixing:
  rms(total) = 0.71046E+00    rms(broyden)= 0.71043E+00
  rms(prec ) = 0.74225E+00
  weight for this iteration     100.00

 eigenvalues of (default mixing * dielectric matrix)
  average eigenvalue GAMMA=   0.4784
  1.3637  1.3136  1.3136  0.5969  0.5969  0.5858  0.5858  0.4082  0.1508  0.1292
  0.0831  0.0904  0.1153  0.1082  0.1082  0.1049

 Free energy of the ion-electron system (eV)
  ---------------------------------------------------
  alpha Z        PSCENC =       285.66169894
  Ewald energy   TEWEN  =    102188.64837870
  -Hartree energ DENC   =   -126476.74057570
  -exchange      EXHF   =         0.00000000
  -V(xc)+E(xc)   XCENC  =       517.89427243
  PAW double counting   =     27944.77162936   -29637.00689496
  entropy T*S    EENTRO =        -0.04709844
  eigenvalues    EBANDS =     -1069.86093931
  atomic energy  EATOM  =     26039.92612388
  Solvation contrib.  Ediel  =         0.00000000
  ---------------------------------------------------
  free energy    TOTEN  =      -206.75340511 eV

  energy without entropy =     -206.70630667  energy(sigma->0) =     -206.74163050


--------------------------------------------------------------------------------------------------------




----------------------------------------- Iteration    1(  22)  ---------------------------------------


    POTLOK:  cpu time    0.44: real time    0.44
    SETDIJ:  cpu time    0.05: real time    0.05
     EDDAV:  cpu time   31.44: real time   31.45
       DOS:  cpu time    0.00: real time    0.00
    CHARGE:  cpu time    1.38: real time    1.38
    MIXING:  cpu time    0.02: real time    0.02
    --------------------------------------------
      LOOP:  cpu time   33.33: real time   33.33

 eigenvalue-minimisations  :  5424
 total energy-change (2. order) : 0.6947110E-01  (-0.2975535E-01)
 number of electron     289.0000782 magnetization      52.8630603
 augmentation part      164.5999897 magnetization      45.2515027

 Broyden mixing:
  rms(total) = 0.73363E+00    rms(broyden)= 0.73360E+00
  rms(prec ) = 0.77715E+00
  weight for this iteration     100.00

 eigenvalues of (default mixing * dielectric matrix)
  average eigenvalue GAMMA=   0.4672
  1.3891  1.3438  1.3438  0.6197  0.6197  0.6026  0.6026  0.4039  0.1513  0.1274
  0.1234  0.1234  0.1091  0.1091  0.0831  0.1001  0.0904

 Free energy of the ion-electron system (eV)
  ---------------------------------------------------
  alpha Z        PSCENC =       285.66169894
  Ewald energy   TEWEN  =    102188.64837870
  -Hartree energ DENC   =   -126484.66091591
  -exchange      EXHF   =         0.00000000
  -V(xc)+E(xc)   XCENC  =       518.60767266
  PAW double counting   =     27976.39139577   -29670.15839285
  entropy T*S    EENTRO =        -0.04542025
  eigenvalues    EBANDS =     -1061.05447496
  atomic energy  EATOM  =     26039.92612388
  Solvation contrib.  Ediel  =         0.00000000
  ---------------------------------------------------
  free energy    TOTEN  =      -206.68393401 eV

  energy without entropy =     -206.63851377  energy(sigma->0) =     -206.67257895


--------------------------------------------------------------------------------------------------------




----------------------------------------- Iteration    1(  23)  ---------------------------------------


    POTLOK:  cpu time    0.44: real time    0.43
    SETDIJ:  cpu time    0.05: real time    0.05
     EDDAV:  cpu time   27.80: real time   27.81
       DOS:  cpu time    0.00: real time    0.00
    CHARGE:  cpu time    1.34: real time    1.33
    MIXING:  cpu time    0.02: real time    0.02
    --------------------------------------------
      LOOP:  cpu time   29.65: real time   29.65

 eigenvalue-minimisations  :  4664
 total energy-change (2. order) : 0.1861409E+00  (-0.2444408E-01)
 number of electron     289.0000779 magnetization      53.1761587
 augmentation part      164.6538302 magnetization      45.6745440

 Broyden mixing:
  rms(total) = 0.53604E+00    rms(broyden)= 0.53602E+00
  rms(prec ) = 0.57034E+00
  weight for this iteration     100.00

 eigenvalues of (default mixing * dielectric matrix)
  average eigenvalue GAMMA=   0.4915
  1.4547  1.4547  1.4451  0.6937  0.6937  0.6154  0.6154  0.4250  0.4250  0.1504
  0.1378  0.1302  0.0831  0.0904  0.1119  0.1119  0.1046  0.1046

 Free energy of the ion-electron system (eV)
  ---------------------------------------------------
  alpha Z        PSCENC =       285.66169894
  Ewald energy   TEWEN  =    102188.64837870
  -Hartree energ DENC   =   -126488.24729436
  -exchange      EXHF   =         0.00000000
  -V(xc)+E(xc)   XCENC  =       518.85821910
  PAW double counting   =     27982.85824217   -29677.19707256
  entropy T*S    EENTRO =        -0.04392932
  eigenvalues    EBANDS =     -1056.96215965
  atomic energy  EATOM  =     26039.92612388
  Solvation contrib.  Ediel  =         0.00000000
  ---------------------------------------------------
  free energy    TOTEN  =      -206.49779309 eV

  energy without entropy =     -206.45386378  energy(sigma->0) =     -206.48681076


--------------------------------------------------------------------------------------------------------




----------------------------------------- Iteration    1(  24)  ---------------------------------------


    POTLOK:  cpu time    0.44: real time    0.44
    SETDIJ:  cpu time    0.05: real time    0.05
     EDDAV:  cpu time   28.93: real time   28.94
       DOS:  cpu time    0.00: real time    0.00
    CHARGE:  cpu time    1.34: real time    1.35
    MIXING:  cpu time    0.02: real time    0.02
    --------------------------------------------
      LOOP:  cpu time   30.79: real time   30.79

 eigenvalue-minimisations  :  4896
 total energy-change (2. order) : 0.1850160E+00  (-0.3608379E-01)
 number of electron     289.0000776 magnetization      53.5383171
 augmentation part      164.7072330 magnetization      46.1468275

 Broyden mixing:
  rms(total) = 0.63264E+00    rms(broyden)= 0.63261E+00
  rms(prec ) = 0.67999E+00
  weight for this iteration     100.00

 eigenvalues of (default mixing * dielectric matrix)
  average eigenvalue GAMMA=   0.5052
  1.7181  1.4766  1.4766  0.7668  0.7668  0.6485  0.6485  0.4745  0.4745  0.1508
  0.1352  0.1352  0.0831  0.0904  0.1172  0.1172  0.1084  0.1084  0.1025

 Free energy of the ion-electron system (eV)
  ---------------------------------------------------
  alpha Z        PSCENC =       285.66169894
  Ewald energy   TEWEN  =    102188.64837870
  -Hartree energ DENC   =   -126497.06824698
  -exchange      EXHF   =         0.00000000
  -V(xc)+E(xc)   XCENC  =       519.21249443
  PAW double counting   =     27978.80787726   -29674.10719496
  entropy T*S    EENTRO =        -0.03859452
  eigenvalues    EBANDS =     -1047.35531382
  atomic energy  EATOM  =     26039.92612388
  Solvation contrib.  Ediel  =         0.00000000
  ---------------------------------------------------
  free energy    TOTEN  =      -206.31277706 eV

  energy without entropy =     -206.27418254  energy(sigma->0) =     -206.30312843


--------------------------------------------------------------------------------------------------------




----------------------------------------- Iteration    1(  25)  ---------------------------------------


    POTLOK:  cpu time    0.44: real time    0.44
    SETDIJ:  cpu time    0.05: real time    0.05
     EDDAV:  cpu time   26.20: real time   26.20
       DOS:  cpu time    0.00: real time    0.00
    CHARGE:  cpu time    1.30: real time    1.31
    MIXING:  cpu time    0.02: real time    0.03
    --------------------------------------------
      LOOP:  cpu time   28.01: real time   28.01

 eigenvalue-minimisations  :  4296
 total energy-change (2. order) : 0.3740348E+00  (-0.2945751E-01)
 number of electron     289.0000776 magnetization      53.8670084
 augmentation part      164.7132040 magnetization      46.5894762

 Broyden mixing:
  rms(total) = 0.33268E+00    rms(broyden)= 0.33264E+00
  rms(prec ) = 0.35069E+00
  weight for this iteration     100.00

 eigenvalues of (default mixing * dielectric matrix)
  average eigenvalue GAMMA=   0.5135
  1.8828  1.2382  1.2382  0.9821  0.9821  0.6675  0.6675  0.5425  0.4652  0.4652
  0.1501  0.1449  0.0831  0.1277  0.0904  0.1151  0.1099  0.1099  0.1039  0.1039

 Free energy of the ion-electron system (eV)
  ---------------------------------------------------
  alpha Z        PSCENC =       285.66169894
  Ewald energy   TEWEN  =    102188.64837870
  -Hartree energ DENC   =   -126507.32927732
  -exchange      EXHF   =         0.00000000
  -V(xc)+E(xc)   XCENC  =       519.73582462
  PAW double counting   =     27978.89111983   -29675.22496244
  entropy T*S    EENTRO =        -0.03950959
  eigenvalues    EBANDS =     -1036.20813884
  atomic energy  EATOM  =     26039.92612388
  Solvation contrib.  Ediel  =         0.00000000
  ---------------------------------------------------
  free energy    TOTEN  =      -205.93874222 eV

  energy without entropy =     -205.89923263  energy(sigma->0) =     -205.92886482


--------------------------------------------------------------------------------------------------------




----------------------------------------- Iteration    1(  26)  ---------------------------------------


    POTLOK:  cpu time    0.44: real time    0.44
    SETDIJ:  cpu time    0.04: real time    0.05
     EDDAV:  cpu time   28.45: real time   28.45
       DOS:  cpu time    0.00: real time    0.00
    CHARGE:  cpu time    1.32: real time    1.32
    MIXING:  cpu time    0.03: real time    0.03
    --------------------------------------------
      LOOP:  cpu time   30.28: real time   30.29

 eigenvalue-minimisations  :  4784
 total energy-change (2. order) : 0.2168395E+00  (-0.1557086E-01)
 number of electron     289.0000778 magnetization      54.0536479
 augmentation part      164.7309818 magnetization      46.8547991

 Broyden mixing:
  rms(total) = 0.36394E+00    rms(broyden)= 0.36392E+00
  rms(prec ) = 0.38649E+00
  weight for this iteration     100.00

 eigenvalues of (default mixing * dielectric matrix)
  average eigenvalue GAMMA=   0.5153
  1.8893  1.8893  1.0137  1.0137  0.8266  0.6732  0.6732  0.6006  0.4854  0.4854
  0.1492  0.1492  0.0831  0.1286  0.1286  0.0904  0.1110  0.1110  0.1098  0.1051
  0.1051

 Free energy of the ion-electron system (eV)
  ---------------------------------------------------
  alpha Z        PSCENC =       285.66169894
[...]
 -0.002   0.004   2.047  -0.106   0.065   0.004  -0.002  -0.964   0.025  -0.027   0.025   0.048  -0.004  -0.054   0.001  -0.000
  0.003   0.014  -0.106   2.128  -0.094  -0.001  -0.005   0.027  -0.937   0.019   0.016   0.024  -0.004  -0.012  -0.048  -0.000
 -0.005  -0.004   0.065  -0.094   1.988   0.001   0.002  -0.027   0.022  -0.933   0.004   0.004   0.001  -0.013   0.009  -0.000
 -0.922  -0.087   0.004  -0.001   0.001   0.234   0.044  -0.004   0.001   0.000   0.002   0.000  -0.000  -0.002  -0.000   0.004
 -0.090  -0.897  -0.002  -0.005   0.002   0.044   0.236   0.000   0.001  -0.001   0.002  -0.000  -0.014  -0.000   0.000   0.014
  0.004  -0.002  -0.964   0.027  -0.027  -0.004   0.000   0.286   0.000   0.004   0.007  -0.026   0.002   0.004   0.011   0.000
 -0.001  -0.005   0.025  -0.937   0.022   0.001   0.001   0.000   0.249   0.000   0.008  -0.013   0.002   0.004  -0.006   0.000
  0.001   0.002  -0.027   0.019  -0.933   0.000  -0.001   0.004   0.000   0.249   0.002  -0.003  -0.000   0.004  -0.007   0.000
 -0.003  -0.002   0.025   0.016   0.004   0.002   0.002   0.007   0.008   0.002  -0.231   0.081  -0.002  -0.046  -0.014   0.000
 -0.000   0.001   0.048   0.024   0.004   0.000  -0.000  -0.026  -0.013  -0.003   0.081  -0.008  -0.000   0.008   0.002  -0.000
 -0.032  -0.021  -0.004  -0.004   0.001  -0.000  -0.014   0.002   0.002  -0.000  -0.002  -0.000  -0.023   0.001   0.000   0.003
  0.002  -0.000  -0.054  -0.012  -0.013  -0.002  -0.000   0.004   0.004   0.004  -0.046   0.008   0.001  -0.010   0.002  -0.000
 -0.000  -0.001   0.001  -0.048   0.009  -0.000   0.000   0.011  -0.006  -0.007  -0.014   0.002   0.000   0.002  -0.020  -0.000
 -0.009  -0.022  -0.000  -0.000  -0.000   0.004   0.014   0.000   0.000   0.000   0.000  -0.000   0.003  -0.000  -0.000  -0.000
 -0.000   0.000  -0.028  -0.006  -0.001  -0.000  -0.000   0.016   0.003   0.000   0.004  -0.002   0.000   0.003  -0.000   0.000
  0.000  -0.000   0.004  -0.023  -0.004  -0.000   0.000  -0.002   0.014   0.003   0.001  -0.000  -0.000  -0.000   0.003   0.000


------------------------ aborting loop because EDIFF is reached ----------------------------------------



 DIPCOR: dipole corrections for dipol
 direction  3 min pos   122,
 dipolmoment           0.000000      0.000000      0.097448 electrons x Angstroem
 Tr[quadrupol]     -3553.168630

 energy correction for charged system         0.000000 eV
 dipol+quadrupol energy correction            0.000563 eV
 added-field ion interaction          0.000000 eV  (added to PSCEN)

 
  *************** adding dipol energy to TOTEN NOW **************** 
    CHARGE:  cpu time    1.30: real time    1.30
    FORLOC:  cpu time    0.04: real time    0.04
    FORNL :  cpu time    4.39: real time    4.39
    STRESS:  cpu time   13.26: real time   13.26
    FORCOR:  cpu time    0.52: real time    0.52
    FORHAR:  cpu time    0.08: real time    0.08
    MIXING:  cpu time    0.07: real time    0.07
    OFIELD:  cpu time    0.00: real time    0.00

  Hirshfeld-DOM and Hirshfeld charges and relative Volumes:   
            ion         q(e)           q(e)           rel_vol 
   -----------------------------------------------------------
      1     Co          0.032          0.035          1.084
      2     Co          0.041          0.039          1.076
      3     Co          0.036          0.037          1.080
      4     Co          0.039          0.038          1.078
      5     Co          0.037          0.037          1.080
      6     Co          0.039          0.037          1.078
      7     Co          0.039          0.039          1.078
      8     Co          0.034          0.035          1.082
      9     Co         -0.034         -0.033          0.937
     10     Co         -0.030         -0.032          0.930
     11     Co         -0.033         -0.032          0.937
     12     Co         -0.031         -0.034          0.929
     13     Co         -0.034         -0.035          0.933
     14     Co         -0.032         -0.034          0.930
     15     Co         -0.035         -0.034          0.937
     16     Co         -0.031         -0.035          0.927
     17     Co         -0.022         -0.022          0.929
     18     Co         -0.040         -0.036          0.938
     19     Co         -0.046         -0.038          0.943
     20     Co         -0.039         -0.034          0.938
     21     Co         -0.038         -0.034          0.936
     22     Co         -0.045         -0.038          0.941
     23     Co         -0.041         -0.036          0.939
     24     Co         -0.023         -0.023          0.931
     25     Co          0.065          0.052          1.037
     26     Co          0.053          0.049          1.054
     27     Co          0.056          0.048          1.044
     28     Co          0.065          0.052          1.040
     29     Co          0.044          0.042          1.049
     30     Co          0.041          0.036          1.047
     31     Co          0.042          0.036          1.045
     32     Co          0.043          0.042          1.050
     33     H          -0.152         -0.127          1.062

  dDsC method for vdW energy calculation
  ---------------------------------------------------------------------------------------------

  Parameters of vdW forcefield:
            C6dDsC            XDM            ALPHAts        RELVOL
            (au)              (au)            (au)                
   ---------------------------------------------------------------
   Co        544.137         11.996         54.209          1.084
   Co        536.708         11.920         53.807          1.076
   Co        539.431         11.941         53.988          1.080
   Co        538.752         11.944         53.906          1.078
   Co        539.224         11.932         54.006          1.080
   Co        538.952         11.951         53.894          1.078
   Co        537.174         11.910         53.903          1.078
   Co        543.776         12.007         54.124          1.082
   Co        325.424          8.301         46.851          0.937
   Co        322.657          8.289         46.517          0.930
   Co        325.424          8.305         46.826          0.937
   Co        321.728          8.282         46.425          0.929
   Co        323.882          8.296         46.658          0.933
   Co        322.394          8.282         46.519          0.930
   Co        325.387          8.298         46.862          0.937
   Co        320.953          8.280         46.325          0.927
   Co        325.127          8.366         46.444          0.929
   Co        329.400          8.391         46.913          0.938
   Co        331.113          8.397         47.125          0.943
   Co        328.621          8.376         46.888          0.938
   Co        328.126          8.378         46.806          0.936
   Co        330.591          8.395         47.059          0.941
   Co        330.041          8.397         46.972          0.939
   Co        326.088          8.375         46.530          0.931
   Co        477.878         11.012         51.861          1.037
   Co        507.990         11.525         52.677          1.054
   Co        500.977         11.472         52.186          1.044
   Co        479.724         11.028         51.988          1.040
   Co        502.319         11.441         52.468          1.049
   Co        503.234         11.490         52.340          1.047
   Co        502.689         11.492         52.274          1.045
   Co        502.407         11.439         52.486          1.050
   H          11.368          2.842          4.780          1.062

  IVDW =   4
  VDW_RADIUS =    50.000 A
  VDW_S6 aka ATT0 =    13.960
  VDW_SR aka BTT0 =     1.320
  LVDW_ONECELL = F F F

  Number of pair interactions contributing to vdW energy:  193593
  Edisp (eV):   -6.36445
    FORVDW:  cpu time   11.47: real time   11.47

  FORCE on cell =-STRESS in cart. coord.  units (eV):
  Direction    XX          YY          ZZ          XY          YZ          ZX
  --------------------------------------------------------------------------------------
  Alpha Z   285.66170   285.66170   285.66170
  Ewald  117502.75097118143.52710************   -28.05841     0.38626    -0.78110
  Hartree123172.43008123566.21598************   -12.81781     0.14900    -0.37510
  E(xc)   -1475.50234 -1475.13473 -1478.48709    -0.07379    -0.00405    -0.00158
  Local  ************************247602.48429    38.57006    -0.57078     1.11942
  n-local  -182.06833  -174.51415  -198.85623    -0.05275     0.02792    -0.01196
  augment  4989.36797  4984.79866  4986.56849     0.75167     0.03414     0.01700
  Kinetic  2414.73874  2405.63667  2437.56439     1.69874     0.05220     0.04335
  Fock        0.00000     0.00000     0.00000     0.00000     0.00000     0.00000
  vdW        -8.07701    -8.03835    -3.34688    -0.00204     0.00088     0.00014
  -------------------------------------------------------------------------------------
  Total     -23.66377   -22.53017    -6.75539     0.01568     0.07558     0.01016
  in kB     -24.84317   -23.65307    -7.09208     0.01646     0.07935     0.01067
  external pressure =      -18.53 kB  Pullay stress =        0.00 kB


 VOLUME and BASIS-vectors are now :
 -----------------------------------------------------------------------------
  energy-cutoff  :      400.00
  volume of cell :     1526.12
      direct lattice vectors                 reciprocal lattice vectors
     8.559999890  0.000000000  0.000000000     0.116822431  0.000000000  0.000000000
     0.000000000  8.019998610  0.000000000     0.000000000  0.124688301  0.000000000
     0.000000000  0.000000000 22.230000000     0.000000000  0.000000000  0.044984256

  length of vectors
     8.559999890  8.019998610 22.230000000     0.116822431  0.124688301  0.044984256


 FORCES acting on ions
    electron-ion (+dipol)            ewald-force                    non-local-force                 convergence-correction
 -----------------------------------------------------------------------------------------------
   0.474E+02 -.566E+00 0.185E+04   -.460E+02 0.531E+00 -.185E+04   -.117E+01 0.107E-01 -.400E+01   0.204E-03 0.486E-03 -.399E-02
   -.486E+02 -.102E+01 0.185E+04   0.471E+02 0.107E+01 -.184E+04   0.119E+01 -.389E-01 -.429E+01   -.109E-02 -.323E-02 -.420E-02
   0.471E+02 0.828E+00 0.185E+04   -.457E+02 -.858E+00 -.184E+04   -.118E+01 0.386E-01 -.420E+01   -.333E-02 -.548E-03 -.372E-02
   -.491E+02 0.835E+00 0.185E+04   0.476E+02 -.839E+00 -.184E+04   0.118E+01 0.171E-02 -.418E+01   -.107E-02 0.326E-02 -.521E-02
   0.491E+02 -.986E+00 0.185E+04   -.477E+02 0.990E+00 -.184E+04   -.118E+01 -.228E-02 -.418E+01   0.552E-04 -.846E-03 -.576E-02
   -.472E+02 -.842E+00 0.185E+04   0.458E+02 0.870E+00 -.184E+04   0.118E+01 -.377E-01 -.420E+01   0.254E-02 0.102E-02 -.304E-02
   0.487E+02 0.113E+01 0.185E+04   -.472E+02 -.118E+01 -.184E+04   -.119E+01 0.406E-01 -.429E+01   0.357E-02 0.796E-03 -.411E-02
   -.476E+02 0.463E+00 0.185E+04   0.462E+02 -.430E+00 -.185E+04   0.117E+01 -.860E-02 -.400E+01   0.239E-02 -.964E-03 -.385E-02
   -.942E+01 -.254E+00 0.713E+03   0.963E+01 0.263E+00 -.714E+03   -.239E+00 -.285E-01 0.857E+00   -.314E-02 0.939E-03 -.687E-02
   0.622E+01 -.100E+01 0.712E+03   -.641E+01 0.964E+00 -.713E+03   0.267E+00 0.186E-01 0.884E+00   -.165E-02 -.105E-02 -.780E-02
   -.618E+01 0.104E+01 0.712E+03   0.637E+01 -.101E+01 -.713E+03   -.265E+00 -.212E-01 0.883E+00   -.806E-03 -.936E-03 -.713E-02
   0.102E+02 0.498E+00 0.713E+03   -.104E+02 -.514E+00 -.714E+03   0.236E+00 0.246E-01 0.855E+00   0.491E-03 0.104E-02 -.814E-02
   -.639E+01 -.229E+01 0.712E+03   0.656E+01 0.235E+01 -.712E+03   -.274E+00 -.335E-01 0.350E+00   0.368E-02 -.959E-03 -.384E-02
   0.552E+01 -.319E+01 0.713E+03   -.573E+01 0.315E+01 -.715E+03   0.287E+00 0.448E-01 0.789E+00   -.209E-02 -.212E-03 -.341E-02
   -.583E+01 0.368E+01 0.713E+03   0.605E+01 -.365E+01 -.715E+03   -.284E+00 -.509E-01 0.785E+00   0.118E-02 0.892E-03 -.122E-02
   0.600E+01 0.225E+01 0.712E+03   -.617E+01 -.231E+01 -.713E+03   0.275E+00 0.298E-01 0.346E+00   -.427E-02 0.262E-03 -.423E-02
   0.241E+02 0.343E+01 -.690E+03   -.246E+02 -.346E+01 0.690E+03   0.462E+00 0.271E-01 -.357E+00   0.788E-02 -.338E-02 -.105E-02
   -.213E+02 0.316E+01 -.718E+03   0.218E+02 -.314E+01 0.719E+03   -.430E+00 -.252E-01 -.859E+00   0.861E-02 0.288E-03 -.286E-02
   0.249E+02 -.286E+01 -.715E+03   -.252E+02 0.237E+01 0.716E+03   0.328E+00 0.492E+00 -.945E+00   0.826E-02 0.348E-02 0.141E-03
   -.168E+02 -.152E+01 -.710E+03   0.175E+02 0.160E+01 0.711E+03   -.678E+00 -.800E-01 -.883E+00   0.254E-02 -.317E-03 -.273E-02
   0.167E+02 0.103E+01 -.712E+03   -.174E+02 -.111E+01 0.713E+03   0.685E+00 0.740E-01 -.886E+00   -.296E-02 0.362E-02 -.246E-02
   -.249E+02 0.301E+01 -.716E+03   0.252E+02 -.252E+01 0.717E+03   -.332E+00 -.495E+00 -.947E+00   -.917E-02 -.113E-02 -.101E-03
   0.215E+02 -.293E+01 -.718E+03   -.220E+02 0.291E+01 0.719E+03   0.414E+00 0.256E-01 -.863E+00   -.362E-02 -.362E-02 -.342E-02
   -.243E+02 -.378E+01 -.691E+03   0.248E+02 0.381E+01 0.692E+03   -.454E+00 -.250E-01 -.381E+00   -.319E-02 0.989E-03 -.141E-02
   -.785E+02 0.339E+02 -.181E+04   0.772E+02 -.334E+02 0.181E+04   0.130E+01 -.407E+00 0.196E+01   -.519E-02 -.407E-03 0.307E-02
   0.609E+02 0.479E+01 -.181E+04   -.597E+02 -.496E+01 0.181E+04   -.110E+01 0.169E+00 0.399E+01   0.229E-02 -.156E-03 0.154E-02
   -.611E+02 -.475E+01 -.181E+04   0.600E+02 0.491E+01 0.181E+04   0.110E+01 -.163E+00 0.398E+01   -.455E-02 0.826E-03 0.323E-02
   0.777E+02 -.345E+02 -.181E+04   -.764E+02 0.341E+02 0.181E+04   -.129E+01 0.424E+00 0.198E+01   0.399E-02 -.803E-04 0.309E-02
   -.550E+02 0.175E+01 -.181E+04   0.539E+02 -.174E+01 0.181E+04   0.112E+01 0.223E-04 0.396E+01   0.118E-02 0.875E-03 0.349E-02
   0.557E+02 0.261E+01 -.182E+04   -.546E+02 -.266E+01 0.182E+04   -.106E+01 0.560E-01 0.390E+01   -.259E-02 -.219E-03 0.298E-02
   -.554E+02 -.239E+01 -.182E+04   0.543E+02 0.244E+01 0.182E+04   0.106E+01 -.545E-01 0.390E+01   0.671E-03 -.887E-03 0.332E-02
   0.551E+02 -.186E+01 -.181E+04   -.540E+02 0.185E+01 0.181E+04   -.110E+01 0.149E-02 0.396E+01   -.438E-02 0.253E-03 0.174E-02
   0.599E+00 0.302E+00 -.284E+03   -.622E+00 -.316E+00 0.286E+03   0.279E-01 0.174E-01 -.175E+01   -.172E-03 0.240E-03 -.391E-03
 -----------------------------------------------------------------------------------------------
   -.443E-01 -.499E-01 0.832E+01   -.146E-12 0.779E-13 -.568E-13   0.548E-01 0.253E-01 -.780E+01   -.373E-02 0.318E-03 -.684E-01
 
 
 POSITION                                       TOTAL-FORCE (eV/Angst)
 -----------------------------------------------------------------------------------
      4.27999      4.01000      0.00000         0.204017     -0.022613      0.500189
      5.70701      6.01499      0.00000        -0.226464      0.006045      0.531459
      4.27999      0.00000      0.00000         0.213668      0.008058      0.516451
      5.70701      2.00500      0.00000        -0.256461      0.000313      0.523642
      0.00000      4.01000      0.00000         0.256622      0.001978      0.521069
      1.42700      6.01499      0.00000        -0.212915     -0.007525      0.515765
      0.00000      0.00000      0.00000         0.226586     -0.005432      0.530982
      1.42700      2.00500      0.00000        -0.202136      0.022935      0.498497
      6.42000      4.01000      1.23500        -0.034332     -0.018441     -0.521738
      7.84699      6.01499      1.23500         0.077083     -0.019509     -0.486562
      6.42000      0.00000      1.23500        -0.074164      0.015154     -0.485976
      7.84699      2.00500      1.23500         0.028286      0.009870     -0.523607
      2.14000      4.01000      1.23500        -0.096875      0.021401     -0.520408
      3.56700      6.01499      1.23500         0.068988      0.011551     -0.532645
      2.14000      0.00000      1.23500        -0.064908     -0.022476     -0.534124
      3.56700      2.00500      1.23500         0.100086     -0.029108     -0.523736
      1.41225      1.99873      2.48210        -0.000524      0.000476      0.003118
      0.01263      8.01881      2.50486        -0.001896     -0.002025      0.002913
      1.42108      6.00516      2.50497        -0.009601      0.003677      0.004957
      0.02759      4.00948      2.49964        -0.000132      0.002504     -0.002358
      5.67829      2.00241      2.50117         0.003469     -0.000158     -0.003294
      4.28659      0.00731      2.50488         0.003799     -0.003304      0.004499
      5.69487      6.01505      2.50498        -0.013817      0.003054      0.000284
      4.29411      4.01286      2.48404         0.000655      0.001242     -0.000448
      3.51234      2.02687      3.67256         0.002535      0.004053     -0.008683
      2.19569      8.01834      3.62316         0.003237      0.005527     -0.003885
      3.51175      6.01164      3.62291        -0.003189     -0.005437     -0.003937
      2.19259      3.98376      3.67323         0.001734      0.007769     -0.002691
      7.78478      2.00303      3.61608        -0.001176      0.008102     -0.002395
      6.46804      8.01882      3.62376        -0.003234      0.007232     -0.001486
      7.80112      6.01348      3.62317         0.000846     -0.001389      0.002836
      6.48119      4.01054      3.61583         0.005285     -0.007927      0.003629
      2.83668      2.99320      4.85562         0.004927      0.004400     -0.002318
 -----------------------------------------------------------------------------------
    total drift:                                0.006739     -0.024193      0.459015


--------------------------------------------------------------------------------------------------------



  FREE ENERGIE OF THE ION-ELECTRON SYSTEM (eV)
  ---------------------------------------------------
  free  energy   TOTEN  =      -213.28527434 eV

  energy  without entropy=     -213.23933556  energy(sigma->0) =     -213.27378965
 


--------------------------------------------------------------------------------------------------------


    POTLOK:  cpu time    0.48: real time    0.48


--------------------------------------------------------------------------------------------------------


 stress matrix after NEB project (eV)
    -23.66377      0.01568      0.01016
      0.01568    -22.53017      0.07558
      0.01016      0.07558     -6.75539
  FORCES: max atom, RMS     0.014153    0.005563
  FORCE total and by dimension    0.031954    0.013817
  Stress total and by dimension   33.365107   23.663775


--------------------------------------------------------------------------------------------------------


  
 reached required accuracy - stopping structural energy minimisation
     LOOP+:  cpu time 1777.98: real time 1778.17
    4ORBIT:  cpu time    0.00: real time    0.00

 total amount of memory used by VASP on root node   189566. kBytes
========================================================================

   base      :      30000. kBytes
   nonlr-proj:       6873. kBytes
   fftplans  :       7367. kBytes
   grid      :      30988. kBytes
   one-center:       1026. kBytes
   wavefun   :     113312. kBytes
 
  
  
 General timing and accounting informations for this job:
 ========================================================
  
                  Total CPU time used (sec):     1785.292
                            User time (sec):     1783.912
                          System time (sec):        1.380
                         Elapsed time (sec):     1786.437
  
                   Maximum memory used (kb):      230512.
                   Average memory used (kb):           0.
  
                          Minor page faults:       287702
                          Major page faults:            0
                 Voluntary context switches:          449
