 vasp.5.3.5 31Mar14 (build Jan 31 2018 16:04:57) complex                        
  
 executed on             LinuxIFC date 2018.12.17  16:32:18
 running on    8 total cores
 distrk:  each k-point on    8 cores,    1 groups
 distr:  one band on NCORES_PER_BAND=   1 cores,    8 groups


--------------------------------------------------------------------------------------------------------


 INCAR:
 POTCAR:    PAW_PBE Co 02Aug2007                  
 POTCAR:    PAW_PBE C 08Apr2002                   
 POTCAR:    PAW_PBE O 08Apr2002                   
 POTCAR:    PAW_PBE H 15Jun2001                   

 ----------------------------------------------------------------------------- 
|                                                                             |
|           W    W    AA    RRRRR   N    N  II  N    N   GGGG   !!!           |
|           W    W   A  A   R    R  NN   N  II  NN   N  G    G  !!!           |
|           W    W  A    A  R    R  N N  N  II  N N  N  G       !!!           |
|           W WW W  AAAAAA  RRRRR   N  N N  II  N  N N  G  GGG   !            |
|           WW  WW  A    A  R   R   N   NN  II  N   NN  G    G                |
|           W    W  A    A  R    R  N    N  II  N    N   GGGG   !!!           |
|                                                                             |
|      For optimal performance we recommend to set                            |
|        NCORE= 4 - approx SQRT( number of cores)                             |
|      NCORE specifies how many cores store one orbital (NPAR=cpu/NCORE).     |
|      This setting can  greatly improve the performance of VASP for DFT.     |
|      The default, NPAR=number of cores might be grossly inefficient         |
|      on modern multi-core architectures or massively parallel machines.     |
|      Do your own testing !!!!                                               |
|      Unfortunately you need to use the default for GW and RPA calculations. |
|      (for HF NCORE is supported but not extensively tested yet)             |
|                                                                             |
 ----------------------------------------------------------------------------- 

 POTCAR:    PAW_PBE Co 02Aug2007                  
   VRHFIN =Co: d8 s1                                                            
   LEXCH  = PE                                                                  
   EATOM  =   813.3670 eV,   59.7808 Ry                                         
                                                                                
   TITEL  = PAW_PBE Co 02Aug2007                                                
   LULTRA =        F    use ultrasoft PP ?                                      
   IUNSCR =        1    unscreen: 0-lin 1-nonlin 2-no                           
   RPACOR =    2.000    partial core radius                                     
   POMASS =   58.933; ZVAL   =    9.000    mass and valenz                      
   RCORE  =    2.300    outmost cutoff radius                                   
   RWIGS  =    2.460; RWIGS  =    1.302    wigner-seitz radius (au A)           
   ENMAX  =  267.968; ENMIN  =  200.976 eV                                      
   RCLOC  =    1.203    cutoff for local pot                                    
   LCOR   =        T    correct aug charges                                     
   LPAW   =        T    paw PP                                                  
   EAUG   =  477.818                                                            
   DEXC   =    0.000                                                            
   RMAX   =    2.360    core radius for proj-oper                               
   RAUG   =    1.300    factor for augmentation sphere                          
   RDEP   =    2.393    radius for radial grids                                 
   RDEPT  =    1.864    core radius for aug-charge                              
                                                                                
   Atomic configuration                                                         
    9 entries                                                                   
     n  l   j            E        occ.                                          
     1  0  0.50     -7587.6674   2.0000                                         
     2  0  0.50      -893.6084   2.0000                                         
     2  1  1.50      -764.5805   6.0000                                         
     3  0  0.50       -97.5973   2.0000                                         
     3  1  1.50       -60.9648   6.0000                                         
     3  2  2.50        -4.2382   8.0000                                         
     4  0  0.50        -4.3746   1.0000                                         
     4  1  1.50        -4.0817   0.0000                                         
     4  3  2.50        -1.3606   0.0000                                         
   Description                                                                  
     l       E           TYP  RCUT    TYP  RCUT                                 
     2     -4.2382362     23  2.300                                             
     2     -5.5988188     23  2.300                                             
     0     -4.3745797     23  2.300                                             
     0      5.7660125     23  2.300                                             
     1     -2.7211652     23  2.300                                             
     1     16.9860234     23  2.300                                             
  local pseudopotential read in
  partial core-charges read in
  partial kinetic energy density read in
  atomic valenz-charges read in
  non local Contribution for L=           2  read in
    real space projection operators read in
  non local Contribution for L=           2  read in
    real space projection operators read in
  non local Contribution for L=           0  read in
    real space projection operators read in
  non local Contribution for L=           0  read in
    real space projection operators read in
  non local Contribution for L=           1  read in
    real space projection operators read in
  non local Contribution for L=           1  read in
    real space projection operators read in
    PAW grid and wavefunctions read in
 
   number of l-projection  operators is LMAX  =           6
   number of lm-projection operators is LMMAX =          18
 
 POTCAR:    PAW_PBE C 08Apr2002                   
   VRHFIN =C: s2p2                                                              
   LEXCH  = PE                                                                  
   EATOM  =   147.1560 eV,   10.8157 Ry                                         
                                                                                
   TITEL  = PAW_PBE C 08Apr2002                                                 
   LULTRA =        F    use ultrasoft PP ?                                      
   IUNSCR =        1    unscreen: 0-lin 1-nonlin 2-no                           
   RPACOR =    1.200    partial core radius                                     
   POMASS =   12.011; ZVAL   =    4.000    mass and valenz                      
   RCORE  =    1.500    outmost cutoff radius                                   
   RWIGS  =    1.630; RWIGS  =    0.863    wigner-seitz radius (au A)           
   ENMAX  =  400.000; ENMIN  =  300.000 eV                                      
   ICORE  =        2    local potential                                         
   LCOR   =        T    correct aug charges                                     
   LPAW   =        T    paw PP                                                  
   EAUG   =  644.873                                                            
   DEXC   =    0.000                                                            
   RMAX   =    1.529    core radius for proj-oper                               
   RAUG   =    1.300    factor for augmentation sphere                          
   RDEP   =    1.501    radius for radial grids                                 
   RDEPT  =    1.300    core radius for aug-charge                              
                                                                                
   Atomic configuration                                                         
    4 entries                                                                   
     n  l   j            E        occ.                                          
     1  0  0.50      -273.3789   2.0000                                         
     2  0  0.50       -13.7508   2.0000                                         
     2  1  0.50        -5.2854   2.0000                                         
     3  2  1.50        -5.4423   0.0000                                         
   Description                                                                  
     l       E           TYP  RCUT    TYP  RCUT                                 
     0    -13.7508458     23  1.200                                             
     0     -8.2022199     23  1.200                                             
     1     -5.2854383     23  1.500                                             
     1     34.0145650     23  1.500                                             
     2     -5.4423304      7  1.500                                             
  local pseudopotential read in
  partial core-charges read in
  partial kinetic energy density read in
  atomic valenz-charges read in
  non local Contribution for L=           0  read in
    real space projection operators read in
  non local Contribution for L=           0  read in
    real space projection operators read in
  non local Contribution for L=           1  read in
    real space projection operators read in
  non local Contribution for L=           1  read in
    real space projection operators read in
    PAW grid and wavefunctions read in
 
   number of l-projection  operators is LMAX  =           4
   number of lm-projection operators is LMMAX =           8
 
 POTCAR:    PAW_PBE O 08Apr2002                   
   VRHFIN =O: s2p4                                                              
   LEXCH  = PE                                                                  
   EATOM  =   432.3788 eV,   31.7789 Ry                                         
                                                                                
   TITEL  = PAW_PBE O 08Apr2002                                                 
   LULTRA =        F    use ultrasoft PP ?                                      
   IUNSCR =        1    unscreen: 0-lin 1-nonlin 2-no                           
   RPACOR =    1.200    partial core radius                                     
   POMASS =   16.000; ZVAL   =    6.000    mass and valenz                      
   RCORE  =    1.520    outmost cutoff radius                                   
   RWIGS  =    1.550; RWIGS  =    0.820    wigner-seitz radius (au A)           
   ENMAX  =  400.000; ENMIN  =  300.000 eV                                      
   ICORE  =        2    local potential                                         
   LCOR   =        T    correct aug charges                                     
   LPAW   =        T    paw PP                                                  
   EAUG   =  605.392                                                            
   DEXC   =    0.000                                                            
   RMAX   =    1.553    core radius for proj-oper                               
   RAUG   =    1.300    factor for augmentation sphere                          
   RDEP   =    1.550    radius for radial grids                                 
   RDEPT  =    1.329    core radius for aug-charge                              
                                                                                
   Atomic configuration                                                         
    4 entries                                                                   
     n  l   j            E        occ.                                          
     1  0  0.50      -514.6923   2.0000                                         
     2  0  0.50       -23.9615   2.0000                                         
     2  1  0.50        -9.0305   4.0000                                         
     3  2  1.50        -9.5241   0.0000                                         
   Description                                                                  
     l       E           TYP  RCUT    TYP  RCUT                                 
     0    -23.9615318     23  1.200                                             
     0     -9.5240782     23  1.200                                             
     1     -9.0304911     23  1.520                                             
     1      8.1634956     23  1.520                                             
     2     -9.5240782      7  1.500                                             
  local pseudopotential read in
  partial core-charges read in
  partial kinetic energy density read in
  kinetic energy density of atom read in
  atomic valenz-charges read in
  non local Contribution for L=           0  read in
    real space projection operators read in
  non local Contribution for L=           0  read in
    real space projection operators read in
  non local Contribution for L=           1  read in
    real space projection operators read in
  non local Contribution for L=           1  read in
    real space projection operators read in
    PAW grid and wavefunctions read in
 
   number of l-projection  operators is LMAX  =           4
   number of lm-projection operators is LMMAX =           8
 
 POTCAR:    PAW_PBE H 15Jun2001                   
   VRHFIN =H: ultrasoft test                                                    
   LEXCH  = PE                                                                  
   EATOM  =    12.4884 eV,    0.9179 Ry                                         
                                                                                
   TITEL  = PAW_PBE H 15Jun2001                                                 
   LULTRA =        F    use ultrasoft PP ?                                      
   IUNSCR =        0    unscreen: 0-lin 1-nonlin 2-no                           
   RPACOR =    0.000    partial core radius                                     
   POMASS =    1.000; ZVAL   =    1.000    mass and valenz                      
   RCORE  =    1.100    outmost cutoff radius                                   
   RWIGS  =    0.700; RWIGS  =    0.370    wigner-seitz radius (au A)           
   ENMAX  =  250.000; ENMIN  =  200.000 eV                                      
   RCLOC  =    0.701    cutoff for local pot                                    
   LCOR   =        T    correct aug charges                                     
   LPAW   =        T    paw PP                                                  
   EAUG   =  400.000                                                            
   RMAX   =    1.123    core radius for proj-oper                               
   RAUG   =    1.200    factor for augmentation sphere                          
   RDEP   =    1.112    radius for radial grids                                 
   RDEPT  =    0.926    core radius for aug-charge                              
                                                                                
   Atomic configuration                                                         
    2 entries                                                                   
     n  l   j            E        occ.                                          
     1  0  0.50        -6.4927   1.0000                                         
     2  1  0.50        -3.4015   0.0000                                         
   Description                                                                  
     l       E           TYP  RCUT    TYP  RCUT                                 
     0     -6.4927494     23  1.100                                             
     0      6.8029130     23  1.100                                             
     1     -4.0817478     23  1.100                                             
  local pseudopotential read in
  atomic valenz-charges read in
  non local Contribution for L=           0  read in
    real space projection operators read in
  non local Contribution for L=           0  read in
    real space projection operators read in
  non local Contribution for L=           1  read in
    real space projection operators read in
    PAW grid and wavefunctions read in
 
   number of l-projection  operators is LMAX  =           3
   number of lm-projection operators is LMMAX =           5
 
 Optimization of the real space projectors (new method)

 maximal supplied QI-value         = 16.25
 optimisation between [QCUT,QGAM] = [ 10.24, 20.48] = [ 29.35,117.42] Ry 
 Optimized for a Real-space Cutoff    1.34 Angstroem

   l    n(q)    QCUT    max X(q) W(low)/X(q) W(high)/X(q)  e(spline) 
   2      7    10.239    65.824    0.41E-03    0.10E-02    0.11E-06
   2      7    10.239    61.429    0.41E-03    0.10E-02    0.11E-06
   0      8    10.239    56.174    0.42E-03    0.17E-03    0.96E-07
   0      8    10.239    31.263    0.38E-03    0.16E-03    0.87E-07
   1      8    10.239    19.828    0.20E-03    0.56E-03    0.13E-06
   1      8    10.239    15.139    0.15E-03    0.46E-03    0.11E-06
 Optimization of the real space projectors (new method)

 maximal supplied QI-value         = 25.13
 optimisation between [QCUT,QGAM] = [ 10.05, 20.36] = [ 28.30,116.06] Ry 
 Optimized for a Real-space Cutoff    1.30 Angstroem

   l    n(q)    QCUT    max X(q) W(low)/X(q) W(high)/X(q)  e(spline) 
   0      8    10.053   115.676    0.49E-03    0.72E-03    0.18E-06
   0      8    10.053    87.132    0.49E-03    0.71E-03    0.18E-06
   1      7    10.053     4.429    0.32E-03    0.31E-03    0.18E-06
   1      7    10.053     2.733    0.23E-03    0.19E-03    0.20E-06
 Optimization of the real space projectors (new method)

 maximal supplied QI-value         = 24.76
 optimisation between [QCUT,QGAM] = [ 10.15, 20.30] = [ 28.85,115.39] Ry 
 Optimized for a Real-space Cutoff    1.38 Angstroem

   l    n(q)    QCUT    max X(q) W(low)/X(q) W(high)/X(q)  e(spline) 
   0      8    10.150    20.381    0.22E-03    0.32E-03    0.29E-06
   0      8    10.150    15.268    0.23E-03    0.35E-03    0.30E-06
   1      8    10.150     5.964    0.46E-03    0.53E-03    0.21E-06
   1      8    10.150     5.382    0.38E-03    0.45E-03    0.19E-06
 Optimization of the real space projectors (new method)

 maximal supplied QI-value         = 34.20
 optimisation between [QCUT,QGAM] = [  9.92, 20.18] = [ 27.55,114.04] Ry 
 Optimized for a Real-space Cutoff    1.26 Angstroem

   l    n(q)    QCUT    max X(q) W(low)/X(q) W(high)/X(q)  e(spline) 
   0      8     9.919    19.460    0.50E-03    0.23E-03    0.29E-06
   0      8     9.919    12.209    0.48E-03    0.23E-03    0.28E-06
   1      7     9.919     4.655    0.17E-03    0.75E-03    0.30E-06
  PAW_PBE Co 02Aug2007                  :
 energy of atom  1       EATOM= -813.3670
 kinetic energy error for atom=    0.0093 (will be added to EATOM!!)
  PAW_PBE C 08Apr2002                   :
 energy of atom  2       EATOM= -147.1560
 kinetic energy error for atom=    0.0288 (will be added to EATOM!!)
  PAW_PBE O 08Apr2002                   :
 energy of atom  3       EATOM= -432.3788
 kinetic energy error for atom=    0.1156 (will be added to EATOM!!)
  PAW_PBE H 15Jun2001                   :
 energy of atom  4       EATOM=  -12.4884
 kinetic energy error for atom=    0.0098 (will be added to EATOM!!)
 
 
 POSCAR: Co C O H                                
  positions in direct lattice
  velocities in cartesian coordinates
 exchange correlation table for  LEXCH =        8
   RHO(1)=    0.500       N(1)  =     2000
   RHO(2)=  100.500       N(2)  =     4000

 VTST: version 3.1, (03/28/14)

 CHAIN: initializing optimizer
 
 OPT: Using VASP Conjugate-Gradient optimizer
 CHAIN: Read ICHAIN            0
 
 POSCAR: Co C O H                                
  positions in direct lattice
  velocities in cartesian coordinates
 


--------------------------------------------------------------------------------------------------------


 ion  position               nearest neighbor table
   1  0.500  0.500  0.000-  16 2.46  14 2.46   4 2.46   2 2.46  13 2.47   9 2.47  17 2.50
   2  0.667  0.750  0.000-   9 2.46  11 2.46   1 2.46   3 2.46  10 2.47  14 2.47  18 2.50
   3  0.500  0.000  0.000-  16 2.46  14 2.46   4 2.46   2 2.46  15 2.47  11 2.47  19 2.50
   4  0.667  0.250  0.000-   9 2.46  11 2.46   1 2.46   3 2.46  12 2.47  16 2.47  20 2.50
   5  0.000  0.500  0.000-  12 2.46  10 2.46   8 2.46   6 2.46   9 2.47  13 2.47  21 2.50
   6  0.167  0.750  0.000-  13 2.46  15 2.46   5 2.46   7 2.46  14 2.47  10 2.47  22 2.50
   7  0.000  0.000  0.000-  12 2.46  10 2.46   8 2.46   6 2.46  11 2.47  15 2.47  23 2.49
   8  0.167  0.250  0.000-  13 2.46  15 2.46   5 2.46   7 2.46  16 2.47  12 2.47  24 2.50
   9  0.750  0.500  0.056-  25 2.38   4 2.46   2 2.46  12 2.46  10 2.46   5 2.47   1 2.47  20 2.47
                            17 2.48  18 2.48  21 2.49
  10  0.917  0.750  0.056-  26 2.38   5 2.46   7 2.46   9 2.46  11 2.46   2 2.47   6 2.47  22 2.48
                            23 2.48  21 2.48  18 2.50
  11  0.750  0.000  0.056-  27 2.37   4 2.46   2 2.46  12 2.46  10 2.46  19 2.47   7 2.47   3 2.47
                            20 2.48  18 2.48  23 2.49
  12  0.917  0.250  0.056-  28 2.46   5 2.46   7 2.46   9 2.46  11 2.46  23 2.47  24 2.47   4 2.47
                             8 2.47  21 2.48  20 2.49
  13  0.250  0.500  0.056-  29 2.39   8 2.46   6 2.46  16 2.46  14 2.46   1 2.47   5 2.47  21 2.48
                            24 2.48  22 2.48  17 2.50
  14  0.417  0.750  0.056-  30 2.39   1 2.46   3 2.46  13 2.46  15 2.46  18 2.47   6 2.47   2 2.47
                            19 2.49  17 2.49  22 2.50
  15  0.250  0.000  0.056-  31 2.38   8 2.46   6 2.46  16 2.46  14 2.46  23 2.47   3 2.47   7 2.47
                            24 2.48  22 2.48  19 2.50
  16  0.417  0.250  0.056-  32 2.40   1 2.46   3 2.46  13 2.46  15 2.46   8 2.47   4 2.47  17 2.47
                            19 2.47  20 2.48  24 2.50
  17  0.502  0.498  0.113-  29 2.36  32 2.43  30 2.43  25 2.43  20 2.44  18 2.45  16 2.47   9 2.48
                            14 2.49  13 2.50   1 2.50
  18  0.665  0.750  0.113-  26 2.38  27 2.41  25 2.41  30 2.44  19 2.45  17 2.45  14 2.47   9 2.48
                            11 2.48   2 2.50  10 2.50
  19  0.502  0.001  0.112-  31 2.35  27 2.42  32 2.43  30 2.44  20 2.44  18 2.45  11 2.47  16 2.47
                            14 2.49   3 2.50  15 2.50
  20  0.666  0.250  0.112-  28 2.38  27 2.42  25 2.43  17 2.44  19 2.44   9 2.47  11 2.48  16 2.48
                            12 2.49  32 2.49   4 2.50
  21  0.001  0.500  0.113-  25 2.39  26 2.42  24 2.44  22 2.45  28 2.45  29 2.47  12 2.48  13 2.48
                            10 2.48   9 2.49   5 2.50
  22  0.165  0.750  0.113-  30 2.39  31 2.42  29 2.42  26 2.44  21 2.45  23 2.45  10 2.48  13 2.48
                            15 2.48  14 2.50   6 2.50
  23  0.001  0.001  0.112-  27 2.39  26 2.43  24 2.44  22 2.45  12 2.47  15 2.47  31 2.48  10 2.48
                            28 2.48   7 2.49  11 2.49
  24  0.165  0.250  0.112-  32 2.37  23 2.44  29 2.44  21 2.44  31 2.44  12 2.47  13 2.48  15 2.48
                             8 2.50  16 2.50  28 2.51
  25  0.754  0.502  0.163-   9 2.38  21 2.39  28 2.39  26 2.40  18 2.41  20 2.43  17 2.43
  26  0.911  0.750  0.163-  10 2.38  18 2.38  27 2.40  25 2.40  21 2.42  23 2.43  22 2.44
  27  0.754  0.998  0.162-  11 2.37  23 2.39  26 2.40  18 2.41  28 2.42  19 2.42  20 2.42
  28  0.907  0.252  0.166-  36 2.08  20 2.38  25 2.39  27 2.42  21 2.45  12 2.46  23 2.48  24 2.51

  29  0.258  0.501  0.163-  17 2.36  13 2.39  32 2.39  30 2.39  22 2.42  24 2.44  21 2.47
  30  0.412  0.750  0.163-  31 2.38  29 2.39  14 2.39  22 2.39  17 2.43  18 2.44  19 2.44
  31  0.260  0.998  0.162-  19 2.35  15 2.38  32 2.38  30 2.38  22 2.42  24 2.44  23 2.48
  32  0.408  0.250  0.163-  24 2.37  31 2.38  29 2.39  16 2.40  17 2.43  19 2.43  20 2.49
  33  0.840  0.081  0.311-  39 1.10  38 1.10  37 1.11  34 1.51
  34  0.004  0.083  0.285-  40 1.11  36 1.46  33 1.51  35 1.51
  35  0.133  0.081  0.332-  42 1.10  43 1.10  44 1.10  34 1.51
  36  0.016  0.236  0.249-  41 1.00  34 1.46  28 2.08
  37  0.753  0.087  0.274-  33 1.11
  38  0.821  0.188  0.341-  33 1.10
  39  0.820  0.965  0.336-  33 1.10
  40  0.018  0.977  0.254-  34 1.11
  41  0.124  0.244  0.233-  36 1.00
  42  0.125  0.189  0.362-  35 1.10
  43  0.126  0.966  0.358-  35 1.10
  44  0.248  0.083  0.309-  35 1.10
 
  LATTYP: Found a simple orthorhombic cell.
 ALAT       =     8.0199986100
 B/A-ratio  =     1.0673318421
 C/A-ratio  =     2.7718209293
  
  Lattice vectors:
  
 A1 = (   0.0000000000,  -8.0199986100,   0.0000000000)
 A2 = (  -8.5599998900,   0.0000000000,   0.0000000000)
 A3 = (   0.0000000000,   0.0000000000, -22.2300000000)


Analysis of symmetry for initial positions (statically):
=====================================================================
 Subroutine PRICEL returns:
 Original cell was already a primitive cell.
 

 Routine SETGRP: Setting up the symmetry group for a 
 simple orthorhombic supercell.


 Subroutine GETGRP returns: Found  1 space group operations
 (whereof  1 operations were pure point group operations)
 out of a pool of  8 trial point group operations.


The static configuration has the point symmetry C_1 .


Analysis of symmetry for dynamics (positions and initial velocities):
=====================================================================
 Subroutine PRICEL returns:
 Original cell was already a primitive cell.
 

 Routine SETGRP: Setting up the symmetry group for a 
 simple orthorhombic supercell.


 Subroutine GETGRP returns: Found  1 space group operations
 (whereof  1 operations were pure point group operations)
 out of a pool of  8 trial point group operations.


The dynamic configuration has the point symmetry C_1 .


Analysis of constrained symmetry for selective dynamics:
=====================================================================
 Subroutine PRICEL returns:
 Original cell was already a primitive cell.
 

 Routine SETGRP: Setting up the symmetry group for a 
 simple orthorhombic supercell.


 Subroutine GETGRP returns: Found  1 space group operations
 (whereof  1 operations were pure point group operations)
 out of a pool of  8 trial point group operations.


The constrained configuration has the point symmetry C_1 .


Analysis of magnetic symmetry:
=====================================================================
 Subroutine PRICEL returns:
 Original cell was already a primitive cell.
 

 Subroutine MAGSYM returns: Found  1 space group operations
 (whereof  1 operations were pure point group operations)
 out of a pool of  1 trial space group operations
 (whereof  1 operations were pure point group operations)
 and found also     1 'primitive' translations


The magnetic configuration has the point symmetry C_1 .
 
 
 KPOINTS:  Automatic mesh                         

Automatic generation of k-mesh.
Space group operators:
 irot       det(A)        alpha          n_x          n_y          n_z        tau_x        tau_y        tau_z
    1     1.000000     0.000000     1.000000     0.000000     0.000000     0.000000     0.000000     0.000000
 
 Subroutine IBZKPT returns following result:
 ===========================================
 
 Found      5 irreducible k-points:
 
 Following reciprocal coordinates:
            Coordinates               Weight
  0.000000  0.000000  0.000000      1.000000
  0.333333  0.000000  0.000000      2.000000
  0.000000  0.333333  0.000000      2.000000
  0.333333  0.333333  0.000000      2.000000
 -0.333333  0.333333  0.000000      2.000000
 
 Following cartesian coordinates:
            Coordinates               Weight
  0.000000  0.000000  0.000000      1.000000
  0.096184  0.000000  0.000000      2.000000
  0.000000  0.102660  0.000000      2.000000
  0.096184  0.102660  0.000000      2.000000
 -0.096184  0.102660  0.000000      2.000000
 


--------------------------------------------------------------------------------------------------------




 Dimension of arrays:
   k-points           NKPTS =      5   k-points in BZ     NKDIM =      5   number of bands    NBANDS=    216
   number of dos      NEDOS =    301   number of ions     NIONS =     44
   non local maximal  LDIM  =      6   non local SUM 2l+1 LMDIM =     18
   total plane-waves  NPLWV = 188160
   max r-space proj   IRMAX =   1408   max aug-charges    IRDMAX=   5061
   dimension x,y,z NGX =    42 NGY =   40 NGZ =  112
   dimension x,y,z NGXF=    84 NGYF=   80 NGZF=  224
   support grid    NGXF=    84 NGYF=   80 NGZF=  224
   ions per type =              32   3   1   8
 NGX,Y,Z   is equivalent  to a cutoff of   8.16,  8.29,  8.38 a.u.
 NGXF,Y,Z  is equivalent  to a cutoff of  16.31, 16.58, 16.75 a.u.


 I would recommend the setting:
   dimension x,y,z NGX =    42 NGY =   39 NGZ =  109
 SYSTEM =  unknown system                          
 POSCAR =  Co C O H                                

 Startparameter for this run:
   NWRITE =      2    write-flag & timer
   PREC   = normal    normal or accurate (medium, high low for compatibility)
   ISTART =      0    job   : 0-new  1-cont  2-samecut
   ICHARG =      2    charge: 1-file 2-atom 10-const
   ISPIN  =      2    spin polarized calculation?
   LNONCOLLINEAR =      F non collinear calculations
   LSORBIT =      F    spin-orbit coupling
   INIWAV =      1    electr: 0-lowe 1-rand  2-diag
   LASPH  =      F    aspherical Exc in radial PAW
   METAGGA=      F    non-selfconsistent MetaGGA calc.
   LSOL =      F    Solvation

 Electronic Relaxation 1
   ENCUT  =  400.0 eV  29.40 Ry    5.42 a.u.  13.96 13.08 36.25*2*pi/ulx,y,z
   ENINI  =  400.0     initial cutoff
   ENAUG  =  644.9 eV  augmentation charge cutoff
   NELM   =     60;   NELMIN=  2; NELMDL= -5     # of ELM steps 
   EDIFF  = 0.1E-05   stopping-criterion for ELM
   LREAL  =      T    real-space projection
   NLSPLINE    = F    spline interpolate recip. space projectors
   LCOMPAT=      F    compatible to vasp.4.4
   GGA_COMPAT  = T    GGA compatible to vasp.4.4-vasp.4.6
   LMAXPAW     = -100 max onsite density
   LMAXMIX     =    2 max onsite mixed and CHGCAR
   VOSKOWN=      0    Vosko Wilk Nusair interpolation
   ROPT   =   -0.00050  -0.00050  -0.00050  -0.00050
 Ionic relaxation
   EDIFFG = -.1E-01   stopping-criterion for IOM
   NSW    =    400    number of steps for IOM
   NBLOCK =      1;   KBLOCK =    400    inner block; outer block 
   IBRION =      2    ionic relax: 0-MD 1-quasi-New 2-CG
   NFREE  =      1    steps in history (QN), initial steepest desc. (CG)
   ISIF   =      2    stress and relaxation
   IWAVPR =     11    prediction:  0-non 1-charg 2-wave 3-comb
   ISYM   =      2    0-nonsym 1-usesym 2-fastsym
   LCORR  =      T    Harris-Foulkes like correction to forces

   POTIM  = 0.5000    time-step for ionic-motion
   TEIN   =    0.0    initial temperature
   TEBEG  =    0.0;   TEEND  =   0.0 temperature during run
   SMASS  =  -3.00    Nose mass-parameter (am)
   estimated Nose-frequenzy (Omega)   =  0.10E-29 period in steps =****** mass=  -0.167E-26a.u.
   SCALEE = 1.0000    scale energy and forces
   NPACO  =    256;   APACO  = 16.0  distance and # of slots for P.C.
   PSTRESS=    0.0 pullay stress

  Mass of Ions in am
   POMASS =  58.93 12.01 16.00  1.00
  Ionic Valenz
   ZVAL   =   9.00  4.00  6.00  1.00
  Atomic Wigner-Seitz radii
   RWIGS  =  -1.00 -1.00 -1.00 -1.00
  virtual crystal weights 
   VCA    =   1.00  1.00  1.00  1.00
   NELECT =     314.0000    total number of electrons
   NUPDOWN=      -1.0000    fix difference up-down

 DOS related values:
   EMIN   =  10.00;   EMAX   =-10.00  energy-range for DOS
   EFERMI =   0.00
   ISMEAR =     2;   SIGMA  =   0.20  broadening in eV -4-tet -1-fermi 0-gaus

 Electronic relaxation 2 (details)
   IALGO  =     38    algorithm
   LDIAG  =      T    sub-space diagonalisation (order eigenvalues)
   LSUBROT=      F    optimize rotation matrix (better conditioning)
   TURBO    =      0    0=normal 1=particle mesh
   IRESTART =      0    0=no restart 2=restart with 2 vectors
   NREBOOT  =      0    no. of reboots
   NMIN     =      0    reboot dimension
   EREF     =   0.00    reference energy to select bands
   IMIX   =      4    mixing-type and parameters
     AMIX     =   0.40;   BMIX     =  1.00
     AMIX_MAG =   1.60;   BMIX_MAG =  1.00
     AMIN     =   0.10
     WC   =   100.;   INIMIX=   1;  MIXPRE=   1;  MAXMIX= -45

 Intra band minimization:
   WEIMIN = 0.0010     energy-eigenvalue tresh-hold
   EBREAK =  0.12E-08  absolut break condition
   DEPER  =   0.30     relativ break condition  

   TIME   =   0.40     timestep for ELM

  volume/ion in A,a.u.               =      34.68       234.06
  Fermi-wavevector in a.u.,A,eV,Ry     =   0.966471  1.826366 12.708745  0.934066
  Thomas-Fermi vector in A             =   2.096275
 
 Write flags
   LWAVE  =      F    write WAVECAR
   LCHARG =      F    write CHGCAR
   LVTOT  =      F    write LOCPOT, total local potential
   LVHAR  =      F    write LOCPOT, Hartree potential only
   LELF   =      F    write electronic localiz. function (ELF)
   LORBIT =      0    0 simple, 1 ext, 2 COOP (PROOUT)


 Dipole corrections
   LMONO  =      F    monopole corrections only (constant potential shift)
   LDIPOL =      F    correct potential (dipole corrections)
   IDIPOL =      3    1-x, 2-y, 3-z, 4-all directions 
   EPSILON=  1.0000000 bulk dielectric constant

 Exchange correlation treatment:
   GGA     =    PE    GGA type
   LEXCH   =     8    internal setting for exchange type
   VOSKOWN=      0    Vosko Wilk Nusair interpolation
   LHFCALC =     F    Hartree Fock is set to
   LHFONE  =     F    Hartree Fock one center treatment
   AEXX    =    0.0000 exact exchange contribution

 Linear response parameters
   LEPSILON=     F    determine dielectric tensor
   LRPA    =     F    only Hartree local field effects (RPA)
   LNABLA  =     F    use nabla operator in PAW spheres
   LVEL    =     F    velocity operator in full k-point grid
   LINTERFAST=   F  fast interpolation
   KINTER  =     0    interpolate to denser k-point grid
   CSHIFT  =0.1000    complex shift for real part using Kramers Kronig
   OMEGAMAX=  -1.0    maximum frequency
   DEG_THRESHOLD= 0.2000000E-02 threshold for treating states as degnerate
   RTIME   =    0.100 relaxation time in fs

 Orbital magnetization related:
   ORBITALMAG=     F  switch on orbital magnetization
   LCHIMAG   =     F  perturbation theory with respect to B field
   DQ        =  0.001000  dq finite difference perturbation B field



--------------------------------------------------------------------------------------------------------


 conjugate gradient relaxation of ions
   using selective dynamics as specified on POSCAR
 charge density and potential will be updated during run
 spin polarized calculation
 Variant of blocked Davidson
 Davidson routine will perform the subspace rotation
 perform sub-space diagonalisation
    after iterative eigenvector-optimisation
 modified Broyden-mixing scheme, WC =      100.0
 initial mixing is a Kerker type mixing with AMIX =  0.4000 and BMIX =      1.0000
 Hartree-type preconditioning will be used
 using additional bands           59
 real space projection scheme for non local part
 use partial core corrections
 calculate Harris-corrections to forces 
   (improved forces if not selfconsistent)
 use gradient corrections 
 use of overlap-Matrix (Vanderbilt PP)
 Methfessel and Paxton  Order N= 2 SIGMA  =   0.20


--------------------------------------------------------------------------------------------------------


  energy-cutoff  :      400.00
  volume of cell :     1526.12
      direct lattice vectors                 reciprocal lattice vectors
     8.559999890  0.000000000  0.000000000     0.116822431  0.000000000  0.000000000
     0.000000000  8.019998610  0.000000000     0.000000000  0.124688301  0.000000000
     0.000000000  0.000000000 22.230000000     0.000000000  0.000000000  0.044984256

  length of vectors
     8.559999890  8.019998610 22.230000000     0.116822431  0.124688301  0.044984256


 
 k-points in units of 2pi/SCALE and weight:  Automatic mesh                         
   0.00000000  0.00000000  0.00000000       0.111
   0.09618380  0.00000000  0.00000000       0.222
   0.00000000  0.10266003  0.00000000       0.222
   0.09618380  0.10266003  0.00000000       0.222
  -0.09618380  0.10266003  0.00000000       0.222
 
 k-points in reciprocal lattice and weights:  Automatic mesh                         
   0.00000000  0.00000000  0.00000000       0.111
   0.33333333  0.00000000  0.00000000       0.222
   0.00000000  0.33333333  0.00000000       0.222
   0.33333333  0.33333333  0.00000000       0.222
  -0.33333333  0.33333333  0.00000000       0.222
 
 position of ions in fractional coordinates (direct lattice) 
   0.49999899  0.49999954  0.00000000
   0.66670668  0.74999931  0.00000000
   0.49999899  0.00000000  0.00000000
   0.66670668  0.25000008  0.00000000
   0.00000000  0.49999954  0.00000000
   0.16670567  0.74999931  0.00000000
   0.00000000  0.00000000  0.00000000
   0.16670567  0.25000008  0.00000000
   0.74999993  0.49999954  0.05555556
   0.91670473  0.74999931  0.05555556
   0.74999993  0.00000000  0.05555556
   0.91670473  0.25000008  0.05555556
   0.25000007  0.49999954  0.05555556
   0.41670574  0.74999931  0.05555556
   0.25000007  0.00000000  0.05555556
   0.41670574  0.25000008  0.05555556
   0.50176301  0.49832319  0.11264002
   0.66453865  0.74968225  0.11252581
   0.50247065  0.00146057  0.11245582
   0.66645884  0.25027219  0.11236991
   0.00113164  0.49963018  0.11250915
   0.16504905  0.74994583  0.11266096
   0.00145822  0.00089845  0.11205374
   0.16455907  0.25000379  0.11243971
   0.75444524  0.50164402  0.16280360
   0.91060937  0.75019089  0.16251023
   0.75423055  0.99842374  0.16213190
   0.90710294  0.25205216  0.16611610
   0.25819450  0.50079142  0.16280412
   0.41204305  0.74971331  0.16323644
   0.26010556  0.99844085  0.16233754
   0.40779420  0.24967958  0.16339531
   0.84027557  0.08098119  0.31081426
   0.00365432  0.08303931  0.28522308
   0.13313845  0.08060698  0.33153966
   0.01628354  0.23570086  0.24946429
   0.75348457  0.08732760  0.27405848
   0.82126053  0.18841463  0.34066175
   0.82003878  0.96518298  0.33600163
   0.01790836  0.97672368  0.25377312
   0.12443731  0.24376907  0.23296697
   0.12456209  0.18879690  0.36173474
   0.12623433  0.96578943  0.35844663
   0.24801867  0.08278005  0.30916917
 
 position of ions in cartesian coordinates  (Angst):
   4.27999130  4.00999560  0.00000000
   5.70700910  6.01499340  0.00000000
   4.27999130  0.00000000  0.00000000
   5.70700910  2.00500027  0.00000000
   0.00000000  4.00999560  0.00000000
   1.42700051  6.01499340  0.00000000
   0.00000000  0.00000000  0.00000000
   1.42700051  2.00500027  0.00000000
   6.41999930  4.00999560  1.23500000
   7.84699240  6.01499340  1.23500000
   6.41999930  0.00000000  1.23500000
   7.84699240  2.00500027  1.23500000
   2.14000059  4.00999560  1.23500000
   3.56700110  6.01499340  1.23500000
   2.14000059  0.00000000  1.23500000
   3.56700110  2.00500027  1.23500000
   4.29509133  3.99655130  2.50398766
   5.68845077  6.01245060  2.50144871
   4.30114869  0.01171374  2.49989289
   5.70488757  2.00718261  2.49798302
   0.00968681  4.00703336  2.50107847
   1.41281982  6.01456449  2.50445316
   0.01248236  0.00720555  2.49095462
   1.40862564  2.00503001  2.49953479
   6.45805119  4.02318436  3.61912397
   7.79481607  6.01652992  3.61260232
   6.45621340  8.00735699  3.60419207
   7.76480109  2.02145799  3.69276096
   2.21014490  4.01634651  3.61913564
   3.52708845  6.01269970  3.62874604
   2.22650357  8.00749426  3.60876359
   3.49071831  2.00242991  3.63227767
   7.19275878  0.64946900  6.90940102
   0.03128102  0.66597517  6.34050914
   1.13966510  0.64646785  7.37012673
   0.13938713  1.89032059  5.54559119
   6.44982788  0.70036727  6.09231993
   7.02999005  1.51108505  7.57291062
   7.01953187  7.74076614  7.46931613
   0.15329557  7.83332254  5.64137654
   1.06518334  1.95502760  5.17885568
   1.06625146  1.51415088  8.04136327
   1.08056584  7.74562989  7.96826849
   2.12303982  0.66389588  6.87283066
 


--------------------------------------------------------------------------------------------------------


 k-point  1 :   0.0000 0.0000 0.0000  plane waves:   27673
 k-point  2 :   0.3333 0.0000 0.0000  plane waves:   27720
 k-point  3 :   0.0000 0.3333 0.0000  plane waves:   27710
 k-point  4 :   0.3333 0.3333 0.0000  plane waves:   27742
 k-point  5 :  -0.3333 0.3333 0.0000  plane waves:   27742

 maximum and minimum number of plane-waves per node :     27742    27673

 maximum number of plane-waves:     27742
 maximum index in each direction: 
   IXMAX=   14   IYMAX=   13   IZMAX=   36
   IXMIN=  -14   IYMIN=  -13   IZMIN=  -36

 WARNING: aliasing errors must be expected set NGX to  58 to avoid them
 WARNING: aliasing errors must be expected set NGY to  54 to avoid them
 WARNING: aliasing errors must be expected set NGZ to 146 to avoid them
 aliasing errors are usually negligible using standard VASP settings
 and one can safely disregard these warnings

 serial   3D FFT for wavefunctions
 parallel 3D FFT for charge:
    minimum data exchange during FFTs selected (reduces bandwidth)


 total amount of memory used by VASP on root node   203383. kBytes
========================================================================

   base      :      30000. kBytes
   nonlr-proj:       7825. kBytes
   fftplans  :       7367. kBytes
   grid      :      34170. kBytes
   one-center:       1368. kBytes
   wavefun   :     122653. kBytes
 
     INWAV:  cpu time    0.00: real time    0.00
 Broyden mixing: mesh for mixing (old mesh)
   NGX = 27   NGY = 27   NGZ = 73
  (NGX  = 84   NGY  = 80   NGZ  =224)
  gives a total of  53217 points

 initial charge density was supplied:
 charge density of overlapping atoms calculated
 number of electron     314.0000000 magnetization      52.1600000
 keeping initial charge density in first step


--------------------------------------------------------------------------------------------------------


 Maximum index for non-local projection operator         1316
 Maximum index for augmentation-charges          779 (set IRDMAX)


--------------------------------------------------------------------------------------------------------


 First call to EWALD:  gamma=   0.154
 Maximum number of real-space cells 4x 4x 2
 Maximum number of reciprocal cells 2x 2x 5

 FEWALD executed in parallel
    FEWALD:  cpu time    0.00: real time    0.00


----------------------------------------- Iteration    1(   1)  ---------------------------------------


    POTLOK:  cpu time    0.26: real time    0.26
    SETDIJ:  cpu time    0.03: real time    0.03
     EDDAV:  cpu time   17.16: real time   17.20
       DOS:  cpu time    0.00: real time    0.00
    --------------------------------------------
      LOOP:  cpu time   17.45: real time   17.49

 eigenvalue-minimisations  :  4320
 total energy-change (2. order) : 0.2194389E+04  (-0.1104424E+05)
 number of electron     314.0000000 magnetization      52.1600000
 augmentation part      314.0000000 magnetization      52.1600000

 Free energy of the ion-electron system (eV)
  ---------------------------------------------------
  alpha Z        PSCENC =       331.32296425
  Ewald energy   TEWEN  =    104348.05845167
  -Hartree energ DENC   =   -129651.57110388
  -exchange      EXHF   =         0.00000000
  -V(xc)+E(xc)   XCENC  =       617.08668907
  PAW double counting   =     23751.99093977   -25451.76055144
  entropy T*S    EENTRO =        -0.00455544
  eigenvalues    EBANDS =      1248.34438606
  atomic energy  EATOM  =     27000.92142019
  Solvation contrib.  Ediel  =         0.00000000
  ---------------------------------------------------
  free energy    TOTEN  =      2194.38864025 eV

  energy without entropy =     2194.39319569  energy(sigma->0) =     2194.38977911


--------------------------------------------------------------------------------------------------------




----------------------------------------- Iteration    1(   2)  ---------------------------------------


     EDDAV:  cpu time   18.24: real time   18.24
       DOS:  cpu time    0.00: real time    0.00
    --------------------------------------------
      LOOP:  cpu time   18.24: real time   18.24

 eigenvalue-minimisations  :  4416
 total energy-change (2. order) :-0.2243954E+04  (-0.2101933E+04)
 number of electron     314.0000000 magnetization      52.1600000
 augmentation part      314.0000000 magnetization      52.1600000

 Free energy of the ion-electron system (eV)
  ---------------------------------------------------
  alpha Z        PSCENC =       331.32296425
  Ewald energy   TEWEN  =    104348.05845167
  -Hartree energ DENC   =   -129651.57110388
  -exchange      EXHF   =         0.00000000
  -V(xc)+E(xc)   XCENC  =       617.08668907
  PAW double counting   =     23751.99093977   -25451.76055144
  entropy T*S    EENTRO =         0.00519958
  eigenvalues    EBANDS =      -995.61916788
  atomic energy  EATOM  =     27000.92142019
  Solvation contrib.  Ediel  =         0.00000000
  ---------------------------------------------------
  free energy    TOTEN  =       -49.56515867 eV

  energy without entropy =      -49.57035825  energy(sigma->0) =      -49.56645857


--------------------------------------------------------------------------------------------------------




----------------------------------------- Iteration    1(   3)  ---------------------------------------


     EDDAV:  cpu time   23.33: real time   23.33
       DOS:  cpu time    0.00: real time    0.00
    --------------------------------------------
      LOOP:  cpu time   23.33: real time   23.34

 eigenvalue-minimisations  :  6048
 total energy-change (2. order) :-0.2367152E+03  (-0.2171312E+03)
 number of electron     314.0000000 magnetization      52.1600000
 augmentation part      314.0000000 magnetization      52.1600000

 Free energy of the ion-electron system (eV)
  ---------------------------------------------------
  alpha Z        PSCENC =       331.32296425
  Ewald energy   TEWEN  =    104348.05845167
  -Hartree energ DENC   =   -129651.57110388
  -exchange      EXHF   =         0.00000000
  -V(xc)+E(xc)   XCENC  =       617.08668907
  PAW double counting   =     23751.99093977   -25451.76055144
  entropy T*S    EENTRO =        -0.04534892
  eigenvalues    EBANDS =     -1232.28384334
  atomic energy  EATOM  =     27000.92142019
  Solvation contrib.  Ediel  =         0.00000000
  ---------------------------------------------------
  free energy    TOTEN  =      -286.28038262 eV

  energy without entropy =     -286.23503371  energy(sigma->0) =     -286.26904539


--------------------------------------------------------------------------------------------------------




----------------------------------------- Iteration    1(   4)  ---------------------------------------


     EDDAV:  cpu time   20.09: real time   20.09
       DOS:  cpu time    0.00: real time    0.00
    --------------------------------------------
      LOOP:  cpu time   20.09: real time   20.09

 eigenvalue-minimisations  :  5088
 total energy-change (2. order) :-0.1631056E+02  (-0.1599559E+02)
 number of electron     314.0000000 magnetization      52.1600000
 augmentation part      314.0000000 magnetization      52.1600000

 Free energy of the ion-electron system (eV)
  ---------------------------------------------------
  alpha Z        PSCENC =       331.32296425
  Ewald energy   TEWEN  =    104348.05845167
  -Hartree energ DENC   =   -129651.57110388
  -exchange      EXHF   =         0.00000000
  -V(xc)+E(xc)   XCENC  =       617.08668907
  PAW double counting   =     23751.99093977   -25451.76055144
  entropy T*S    EENTRO =        -0.06383753
  eigenvalues    EBANDS =     -1248.57591254
  atomic energy  EATOM  =     27000.92142019
  Solvation contrib.  Ediel  =         0.00000000
  ---------------------------------------------------
  free energy    TOTEN  =      -302.59094044 eV

  energy without entropy =     -302.52710291  energy(sigma->0) =     -302.57498106


--------------------------------------------------------------------------------------------------------




----------------------------------------- Iteration    1(   5)  ---------------------------------------


     EDDAV:  cpu time   24.53: real time   24.53
       DOS:  cpu time    0.00: real time    0.00
    CHARGE:  cpu time    0.70: real time    0.69
    MIXING:  cpu time    0.00: real time    0.00
    --------------------------------------------
      LOOP:  cpu time   25.23: real time   25.23

 eigenvalue-minimisations  :  6480
 total energy-change (2. order) :-0.5447548E+00  (-0.5428689E+00)
 number of electron     314.0000922 magnetization      52.6936409
 augmentation part      150.7284530 magnetization      38.8134132

 Broyden mixing:
  rms(total) = 0.60193E+01    rms(broyden)= 0.60190E+01
  rms(prec ) = 0.63142E+01
  weight for this iteration     100.00

 Free energy of the ion-electron system (eV)
  ---------------------------------------------------
  alpha Z        PSCENC =       331.32296425
  Ewald energy   TEWEN  =    104348.05845167
  -Hartree energ DENC   =   -129651.57110388
  -exchange      EXHF   =         0.00000000
  -V(xc)+E(xc)   XCENC  =       617.08668907
  PAW double counting   =     23751.99093977   -25451.76055144
  entropy T*S    EENTRO =        -0.06433265
  eigenvalues    EBANDS =     -1249.12017218
  atomic energy  EATOM  =     27000.92142019
  Solvation contrib.  Ediel  =         0.00000000
  ---------------------------------------------------
  free energy    TOTEN  =      -303.13569520 eV

  energy without entropy =     -303.07136255  energy(sigma->0) =     -303.11961204


--------------------------------------------------------------------------------------------------------




----------------------------------------- Iteration    1(   6)  ---------------------------------------


    POTLOK:  cpu time    0.25: real time    0.25
    SETDIJ:  cpu time    0.03: real time    0.03
     EDDAV:  cpu time   20.62: real time   20.63
       DOS:  cpu time    0.00: real time    0.00
    CHARGE:  cpu time    0.76: real time    0.76
    MIXING:  cpu time    0.00: real time    0.01
    --------------------------------------------
      LOOP:  cpu time   21.67: real time   21.67

 eigenvalue-minimisations  :  5304
 total energy-change (2. order) :-0.5240472E+02  (-0.3307033E+02)
 number of electron     314.0000858 magnetization      52.0861585
 augmentation part      167.9702016 magnetization      47.5760857

 Broyden mixing:
  rms(total) = 0.12716E+02    rms(broyden)= 0.12716E+02
  rms(prec ) = 0.13650E+02
  weight for this iteration     100.00

 eigenvalues of (default mixing * dielectric matrix)
  average eigenvalue GAMMA=   0.2570
  0.2570

 Free energy of the ion-electron system (eV)
  ---------------------------------------------------
  alpha Z        PSCENC =       331.32296425
  Ewald energy   TEWEN  =    104348.05845167
  -Hartree energ DENC   =   -129368.00001464
  -exchange      EXHF   =         0.00000000
  -V(xc)+E(xc)   XCENC  =       603.65851896
  PAW double counting   =     26051.70837245   -27602.97365666
  entropy T*S    EENTRO =         0.04250972
  eigenvalues    EBANDS =     -1720.27898007
  atomic energy  EATOM  =     27000.92142019
  Solvation contrib.  Ediel  =         0.00000000
  ---------------------------------------------------
  free energy    TOTEN  =      -355.54041413 eV

  energy without entropy =     -355.58292385  energy(sigma->0) =     -355.55104156


--------------------------------------------------------------------------------------------------------




----------------------------------------- Iteration    1(   7)  ---------------------------------------


    POTLOK:  cpu time    0.25: real time    0.25
    SETDIJ:  cpu time    0.03: real time    0.03
     EDDAV:  cpu time   19.64: real time   19.64
       DOS:  cpu time    0.00: real time    0.00
    CHARGE:  cpu time    0.73: real time    0.73
    MIXING:  cpu time    0.01: real time    0.01
    --------------------------------------------
      LOOP:  cpu time   20.66: real time   20.66

 eigenvalue-minimisations  :  4976
 total energy-change (2. order) : 0.5853011E+02  (-0.2423410E+02)
 number of electron     314.0001112 magnetization      51.8073608
 augmentation part      174.1984157 magnetization      41.2777640

 Broyden mixing:
  rms(total) = 0.72428E+01    rms(broyden)= 0.72421E+01
  rms(prec ) = 0.78370E+01
  weight for this iteration     100.00

 eigenvalues of (default mixing * dielectric matrix)
  average eigenvalue GAMMA=   0.3822
  0.6176  0.1469

 Free energy of the ion-electron system (eV)
  ---------------------------------------------------
  alpha Z        PSCENC =       331.32296425
  Ewald energy   TEWEN  =    104348.05845167
  -Hartree energ DENC   =   -129287.63328234
  -exchange      EXHF   =         0.00000000
  -V(xc)+E(xc)   XCENC  =       598.48730134
  PAW double counting   =     26516.22233517   -28090.04338859
  entropy T*S    EENTRO =         0.04666881
  eigenvalues    EBANDS =     -1714.39277712
  atomic energy  EATOM  =     27000.92142019
  Solvation contrib.  Ediel  =         0.00000000
  ---------------------------------------------------
  free energy    TOTEN  =      -297.01030663 eV

  energy without entropy =     -297.05697544  energy(sigma->0) =     -297.02197383


--------------------------------------------------------------------------------------------------------




----------------------------------------- Iteration    1(   8)  ---------------------------------------


    POTLOK:  cpu time    0.24: real time    0.25
    SETDIJ:  cpu time    0.03: real time    0.03
     EDDAV:  cpu time   20.51: real time   20.51
       DOS:  cpu time    0.00: real time    0.00
    CHARGE:  cpu time    0.74: real time    0.74
    MIXING:  cpu time    0.00: real time    0.01
    --------------------------------------------
      LOOP:  cpu time   21.54: real time   21.54

 eigenvalue-minimisations  :  5280
 total energy-change (2. order) : 0.2294042E+02  (-0.7310073E+01)
 number of electron     314.0000971 magnetization      51.7270348
 augmentation part      167.9543473 magnetization      42.4295180

 Broyden mixing:
  rms(total) = 0.53623E+01    rms(broyden)= 0.53617E+01
  rms(prec ) = 0.59890E+01
  weight for this iteration     100.00

 eigenvalues of (default mixing * dielectric matrix)
  average eigenvalue GAMMA=   0.3990
  0.7930  0.2535  0.1504

 Free energy of the ion-electron system (eV)
  ---------------------------------------------------
  alpha Z        PSCENC =       331.32296425
  Ewald energy   TEWEN  =    104348.05845167
  -Hartree energ DENC   =   -129555.40732056
  -exchange      EXHF   =         0.00000000
  -V(xc)+E(xc)   XCENC  =       603.53246555
  PAW double counting   =     27705.84492342   -29357.26794026
  entropy T*S    EENTRO =         0.03219259
  eigenvalues    EBANDS =     -1351.10704328
  atomic energy  EATOM  =     27000.92142019
  Solvation contrib.  Ediel  =         0.00000000
  ---------------------------------------------------
  free energy    TOTEN  =      -274.06988644 eV

  energy without entropy =     -274.10207903  energy(sigma->0) =     -274.07793459


--------------------------------------------------------------------------------------------------------




----------------------------------------- Iteration    1(   9)  ---------------------------------------


    POTLOK:  cpu time    0.25: real time    0.25
    SETDIJ:  cpu time    0.03: real time    0.03
     EDDAV:  cpu time   21.73: real time   21.73
       DOS:  cpu time    0.00: real time    0.00
    CHARGE:  cpu time    0.76: real time    0.76
    MIXING:  cpu time    0.01: real time    0.01
    --------------------------------------------
      LOOP:  cpu time   22.78: real time   22.78

 eigenvalue-minimisations  :  5632
 total energy-change (2. order) :-0.2487621E+02  (-0.5304845E+01)
 number of electron     314.0001047 magnetization      51.2930653
 augmentation part      165.0748733 magnetization      45.4206458

 Broyden mixing:
  rms(total) = 0.85691E+01    rms(broyden)= 0.85687E+01
  rms(prec ) = 0.10428E+02
  weight for this iteration     100.00

 eigenvalues of (default mixing * dielectric matrix)
  average eigenvalue GAMMA=   0.3906
  0.7422  0.5546  0.1328  0.1328

 Free energy of the ion-electron system (eV)
  ---------------------------------------------------
  alpha Z        PSCENC =       331.32296425
  Ewald energy   TEWEN  =    104348.05845167
  -Hartree energ DENC   =   -129641.72696086
  -exchange      EXHF   =         0.00000000
  -V(xc)+E(xc)   XCENC  =       605.95615035
  PAW double counting   =     28205.22728781   -29882.30632574
  entropy T*S    EENTRO =         0.02852437
  eigenvalues    EBANDS =     -1266.42760853
  atomic energy  EATOM  =     27000.92142019
  Solvation contrib.  Ediel  =         0.00000000
  ---------------------------------------------------
  free energy    TOTEN  =      -298.94609650 eV

  energy without entropy =     -298.97462087  energy(sigma->0) =     -298.95322759


--------------------------------------------------------------------------------------------------------




----------------------------------------- Iteration    1(  10)  ---------------------------------------


    POTLOK:  cpu time    0.25: real time    0.25
    SETDIJ:  cpu time    0.03: real time    0.03
     EDDAV:  cpu time   20.59: real time   20.59
       DOS:  cpu time    0.00: real time    0.00
    CHARGE:  cpu time    0.71: real time    0.71
    MIXING:  cpu time    0.00: real time    0.01
    --------------------------------------------
      LOOP:  cpu time   21.59: real time   21.59

 eigenvalue-minimisations  :  5296
 total energy-change (2. order) : 0.1747775E+02  (-0.4206652E+01)
 number of electron     314.0000847 magnetization      51.0649291
 augmentation part      164.2873106 magnetization      43.3243530

 Broyden mixing:
  rms(total) = 0.61451E+01    rms(broyden)= 0.61446E+01
  rms(prec ) = 0.70555E+01
  weight for this iteration     100.00

 eigenvalues of (default mixing * dielectric matrix)
  average eigenvalue GAMMA=   0.3581
  0.6857  0.6857  0.1717  0.1717  0.0760

 Free energy of the ion-electron system (eV)
  ---------------------------------------------------
  alpha Z        PSCENC =       331.32296425
  Ewald energy   TEWEN  =    104348.05845167
  -Hartree energ DENC   =   -129661.02989914
  -exchange      EXHF   =         0.00000000
  -V(xc)+E(xc)   XCENC  =       604.77671173
  PAW double counting   =     28555.50089808   -30243.00987667
  entropy T*S    EENTRO =        -0.03038292
  eigenvalues    EBANDS =     -1217.97863616
  atomic energy  EATOM  =     27000.92142019
  Solvation contrib.  Ediel  =         0.00000000
  ---------------------------------------------------
  free energy    TOTEN  =      -281.46834898 eV

  energy without entropy =     -281.43796606  energy(sigma->0) =     -281.46075325


--------------------------------------------------------------------------------------------------------




----------------------------------------- Iteration    1(  11)  ---------------------------------------


    POTLOK:  cpu time    0.25: real time    0.25
    SETDIJ:  cpu time    0.03: real time    0.03
     EDDAV:  cpu time   20.65: real time   20.65
       DOS:  cpu time    0.00: real time    0.00
    CHARGE:  cpu time    0.74: real time    0.74
    MIXING:  cpu time    0.00: real time    0.01
    --------------------------------------------
      LOOP:  cpu time   21.68: real time   21.68

 eigenvalue-minimisations  :  5400
 total energy-change (2. order) : 0.1028597E+02  (-0.2251916E+01)
 number of electron     314.0000963 magnetization      50.8885607
 augmentation part      165.2216740 magnetization      41.1253785

 Broyden mixing:
  rms(total) = 0.39518E+01    rms(broyden)= 0.39514E+01
  rms(prec ) = 0.43662E+01
  weight for this iteration     100.00

 eigenvalues of (default mixing * dielectric matrix)
  average eigenvalue GAMMA=   0.4017
  1.0189  0.5228  0.5228  0.1550  0.1023  0.0882

 Free energy of the ion-electron system (eV)
  ---------------------------------------------------
  alpha Z        PSCENC =       331.32296425
  Ewald energy   TEWEN  =    104348.05845167
  -Hartree energ DENC   =   -129645.81593806
  -exchange      EXHF   =         0.00000000
  -V(xc)+E(xc)   XCENC  =       604.29906827
  PAW double counting   =     28668.08055393   -30355.68116820
  entropy T*S    EENTRO =         0.01580387
  eigenvalues    EBANDS =     -1222.38353236
  atomic energy  EATOM  =     27000.92142019
  Solvation contrib.  Ediel  =         0.00000000
  ---------------------------------------------------
  free energy    TOTEN  =      -271.18237644 eV

  energy without entropy =     -271.19818031  energy(sigma->0) =     -271.18632741


--------------------------------------------------------------------------------------------------------




----------------------------------------- Iteration    1(  12)  ---------------------------------------


    POTLOK:  cpu time    0.25: real time    0.25
    SETDIJ:  cpu time    0.03: real time    0.03
     EDDAV:  cpu time   18.66: real time   18.66
       DOS:  cpu time    0.00: real time    0.00
    CHARGE:  cpu time    0.74: real time    0.74
    MIXING:  cpu time    0.00: real time    0.01
    --------------------------------------------
      LOOP:  cpu time   19.68: real time   19.68

 eigenvalue-minimisations  :  4776
 total energy-change (2. order) : 0.4176368E+01  (-0.1123091E+01)
 number of electron     314.0000978 magnetization      50.8370312
 augmentation part      165.3452230 magnetization      40.9466601

 Broyden mixing:
  rms(total) = 0.30547E+01    rms(broyden)= 0.30543E+01
  rms(prec ) = 0.33319E+01
  weight for this iteration     100.00

 eigenvalues of (default mixing * dielectric matrix)
  average eigenvalue GAMMA=   0.3980
  1.2208  0.5402  0.5402  0.1396  0.1396  0.1202  0.0850

 Free energy of the ion-electron system (eV)
  ---------------------------------------------------
  alpha Z        PSCENC =       331.32296425
  Ewald energy   TEWEN  =    104348.05845167
  -Hartree energ DENC   =   -129652.54181289
  -exchange      EXHF   =         0.00000000
  -V(xc)+E(xc)   XCENC  =       605.07790966
  PAW double counting   =     29000.79586339   -30694.40999468
  entropy T*S    EENTRO =        -0.01857031
  eigenvalues    EBANDS =     -1206.21223973
  atomic energy  EATOM  =     27000.92142019
  Solvation contrib.  Ediel  =         0.00000000
  ---------------------------------------------------
  free energy    TOTEN  =      -267.00600845 eV

  energy without entropy =     -266.98743815  energy(sigma->0) =     -267.00136588


--------------------------------------------------------------------------------------------------------




----------------------------------------- Iteration    1(  13)  ---------------------------------------


    POTLOK:  cpu time    0.24: real time    0.25
    SETDIJ:  cpu time    0.03: real time    0.03
     EDDAV:  cpu time   18.46: real time   18.47
       DOS:  cpu time    0.00: real time    0.00
    CHARGE:  cpu time    0.74: real time    0.74
    MIXING:  cpu time    0.01: real time    0.01
    --------------------------------------------
      LOOP:  cpu time   19.50: real time   19.50

 eigenvalue-minimisations  :  4704
 total energy-change (2. order) : 0.1763131E+01  (-0.6706793E+00)
 number of electron     314.0000996 magnetization      50.9044024
 augmentation part      165.2778687 magnetization      41.0832795

 Broyden mixing:
  rms(total) = 0.18306E+01    rms(broyden)= 0.18302E+01
  rms(prec ) = 0.19761E+01
  weight for this iteration     100.00

 eigenvalues of (default mixing * dielectric matrix)
  average eigenvalue GAMMA=   0.3787
  1.3003  0.5219  0.5219  0.2267  0.1587  0.1223  0.0843  0.0939

 Free energy of the ion-electron system (eV)
  ---------------------------------------------------
  alpha Z        PSCENC =       331.32296425
  Ewald energy   TEWEN  =    104348.05845167
  -Hartree energ DENC   =   -129662.17740667
  -exchange      EXHF   =         0.00000000
  -V(xc)+E(xc)   XCENC  =       605.49124736
  PAW double counting   =     29208.68568255   -30905.66941282
  entropy T*S    EENTRO =        -0.06513530
  eigenvalues    EBANDS =     -1191.81068841
  atomic energy  EATOM  =     27000.92142019
  Solvation contrib.  Ediel  =         0.00000000
  ---------------------------------------------------
  free energy    TOTEN  =      -265.24287719 eV

  energy without entropy =     -265.17774188  energy(sigma->0) =     -265.22659336


--------------------------------------------------------------------------------------------------------




----------------------------------------- Iteration    1(  14)  ---------------------------------------


    POTLOK:  cpu time    0.25: real time    0.25
    SETDIJ:  cpu time    0.03: real time    0.03
     EDDAV:  cpu time   19.93: real time   19.93
       DOS:  cpu time    0.00: real time    0.00
    CHARGE:  cpu time    0.74: real time    0.73
    MIXING:  cpu time    0.01: real time    0.01
    --------------------------------------------
      LOOP:  cpu time   20.95: real time   20.95

 eigenvalue-minimisations  :  5168
 total energy-change (2. order) :-0.2064282E+00  (-0.2749830E+00)
 number of electron     314.0000988 magnetization      50.9603620
 augmentation part      165.0886019 magnetization      41.7730774

 Broyden mixing:
  rms(total) = 0.14506E+01    rms(broyden)= 0.14505E+01
  rms(prec ) = 0.15178E+01
  weight for this iteration     100.00

 eigenvalues of (default mixing * dielectric matrix)
  average eigenvalue GAMMA=   0.3451
  1.3141  0.5143  0.5143  0.2104  0.1618  0.1299  0.0865  0.0874  0.0874

 Free energy of the ion-electron system (eV)
  ---------------------------------------------------
  alpha Z        PSCENC =       331.32296425
  Ewald energy   TEWEN  =    104348.05845167
  -Hartree energ DENC   =   -129672.86272396
  -exchange      EXHF   =         0.00000000
  -V(xc)+E(xc)   XCENC  =       605.86873910
  PAW double counting   =     29321.44585296   -31019.76222088
  entropy T*S    EENTRO =        -0.06345628
  eigenvalues    EBANDS =     -1180.37833247
  atomic energy  EATOM  =     27000.92142019
  Solvation contrib.  Ediel  =         0.00000000
  ---------------------------------------------------
  free energy    TOTEN  =      -265.44930542 eV

  energy without entropy =     -265.38584914  energy(sigma->0) =     -265.43344135


--------------------------------------------------------------------------------------------------------




----------------------------------------- Iteration    1(  15)  ---------------------------------------


    POTLOK:  cpu time    0.25: real time    0.25
    SETDIJ:  cpu time    0.03: real time    0.03
     EDDAV:  cpu time   18.02: real time   18.03
       DOS:  cpu time    0.00: real time    0.00
    CHARGE:  cpu time    0.76: real time    0.75
    MIXING:  cpu time    0.01: real time    0.01
    --------------------------------------------
      LOOP:  cpu time   19.07: real time   19.07

 eigenvalue-minimisations  :  4584
 total energy-change (2. order) :-0.3010518E-01  (-0.8149116E-01)
 number of electron     314.0000988 magnetization      50.9659045
 augmentation part      165.0138727 magnetization      42.0694691

 Broyden mixing:
  rms(total) = 0.11243E+01    rms(broyden)= 0.11243E+01
  rms(prec ) = 0.11439E+01
  weight for this iteration     100.00

 eigenvalues of (default mixing * dielectric matrix)
  average eigenvalue GAMMA=   0.3415
  1.3114  0.5344  0.5344  0.1842  0.2842  0.1563  0.1258  0.0857  0.0993  0.0993

 Free energy of the ion-electron system (eV)
  ---------------------------------------------------
  alpha Z        PSCENC =       331.32296425
  Ewald energy   TEWEN  =    104348.05845167
  -Hartree energ DENC   =   -129677.02011737
  -exchange      EXHF   =         0.00000000
  -V(xc)+E(xc)   XCENC  =       606.06902868
  PAW double counting   =     29363.32982592   -31061.97610207
  entropy T*S    EENTRO =        -0.06715678
  eigenvalues    EBANDS =     -1176.11772508
  atomic energy  EATOM  =     27000.92142019
  Solvation contrib.  Ediel  =         0.00000000
  ---------------------------------------------------
  free energy    TOTEN  =      -265.47941060 eV

  energy without entropy =     -265.41225382  energy(sigma->0) =     -265.46262140


--------------------------------------------------------------------------------------------------------




----------------------------------------- Iteration    1(  16)  ---------------------------------------


    POTLOK:  cpu time    0.25: real time    0.25
    SETDIJ:  cpu time    0.03: real time    0.03
     EDDAV:  cpu time   18.92: real time   18.92
       DOS:  cpu time    0.00: real time    0.00
    CHARGE:  cpu time    0.75: real time    0.75
    MIXING:  cpu time    0.01: real time    0.01
    --------------------------------------------
      LOOP:  cpu time   19.96: real time   19.96

 eigenvalue-minimisations  :  4840
 total energy-change (2. order) :-0.3456038E-01  (-0.1594802E-01)
 number of electron     314.0000988 magnetization      50.9619698
 augmentation part      164.9911765 magnetization      42.1720599

 Broyden mixing:
  rms(total) = 0.11462E+01    rms(broyden)= 0.11462E+01
  rms(prec ) = 0.11652E+01
  weight for this iteration     100.00

 eigenvalues of (default mixing * dielectric matrix)
  average eigenvalue GAMMA=   0.3507
  1.2629  0.5624  0.5624  0.4375  0.3347  0.1464  0.1422  0.1166  0.1166  0.0852
  0.0910

 Free energy of the ion-electron system (eV)
  ---------------------------------------------------
  alpha Z        PSCENC =       331.32296425
  Ewald energy   TEWEN  =    104348.05845167
  -Hartree energ DENC   =   -129677.08133556
  -exchange      EXHF   =         0.00000000
  -V(xc)+E(xc)   XCENC  =       606.07991237
  PAW double counting   =     29364.53302847   -31063.16788758
  entropy T*S    EENTRO =        -0.06706648
  eigenvalues    EBANDS =     -1176.11345830
  atomic energy  EATOM  =     27000.92142019
  Solvation contrib.  Ediel  =         0.00000000
  ---------------------------------------------------
  free energy    TOTEN  =      -265.51397098 eV

  energy without entropy =     -265.44690449  energy(sigma->0) =     -265.49720436


--------------------------------------------------------------------------------------------------------




----------------------------------------- Iteration    1(  17)  ---------------------------------------


    POTLOK:  cpu time    0.25: real time    0.25
    SETDIJ:  cpu time    0.03: real time    0.03
     EDDAV:  cpu time   20.16: real time   20.16
       DOS:  cpu time    0.00: real time    0.00
    CHARGE:  cpu time    0.75: real time    0.75
    MIXING:  cpu time    0.01: real time    0.01
    --------------------------------------------
      LOOP:  cpu time   21.20: real time   21.20

 eigenvalue-minimisations  :  5256
 total energy-change (2. order) : 0.7963370E-01  (-0.1444117E-01)
 number of electron     314.0000985 magnetization      50.9797422
 augmentation part      164.9944454 magnetization      42.2308730

 Broyden mixing:
  rms(total) = 0.13257E+01    rms(broyden)= 0.13257E+01
  rms(prec ) = 0.13507E+01
  weight for this iteration     100.00

 eigenvalues of (default mixing * dielectric matrix)
  average eigenvalue GAMMA=   0.3232
  1.2588  0.5602  0.5602  0.4474  0.3288  0.1453  0.1453  0.1161  0.1161  0.0850
  0.0888  0.0266

 Free energy of the ion-electron system (eV)
  ---------------------------------------------------
  alpha Z        PSCENC =       331.32296425
  Ewald energy   TEWEN  =    104348.05845167
  -Hartree energ DENC   =   -129676.35222867
  -exchange      EXHF   =         0.00000000
  -V(xc)+E(xc)   XCENC  =       605.85959846
  PAW double counting   =     29363.26442399   -31060.90585864
  entropy T*S    EENTRO =        -0.06729004
  eigenvalues    EBANDS =     -1177.53581848
  atomic energy  EATOM  =     27000.92142019
  Solvation contrib.  Ediel  =         0.00000000
  ---------------------------------------------------
  free energy    TOTEN  =      -265.43433727 eV

  energy without entropy =     -265.36704724  energy(sigma->0) =     -265.41751476


--------------------------------------------------------------------------------------------------------




----------------------------------------- Iteration    1(  18)  ---------------------------------------


    POTLOK:  cpu time    0.25: real time    0.25
    SETDIJ:  cpu time    0.03: real time    0.03
     EDDAV:  cpu time   20.79: real time   20.79
       DOS:  cpu time    0.00: real time    0.00
    CHARGE:  cpu time    0.75: real time    0.75
    MIXING:  cpu time    0.01: real time    0.01
    --------------------------------------------
      LOOP:  cpu time   21.84: real time   21.84

 eigenvalue-minimisations  :  5440
 total energy-change (2. order) :-0.5353147E-01  (-0.5486811E-02)
 number of electron     314.0000985 magnetization      50.9541029
 augmentation part      164.9891249 magnetization      42.1893975

 Broyden mixing:
  rms(total) = 0.12623E+01    rms(broyden)= 0.12623E+01
  rms(prec ) = 0.12786E+01
  weight for this iteration     100.00

 eigenvalues of (default mixing * dielectric matrix)
  average eigenvalue GAMMA=   0.3173
  1.2722  0.5658  0.5658  0.2863  0.2863  0.3363  0.1540  0.1540  0.1207  0.1207
  0.0857  0.0887  0.0887

 Free energy of the ion-electron system (eV)
  ---------------------------------------------------
  alpha Z        PSCENC =       331.32296425
  Ewald energy   TEWEN  =    104348.05845167
  -Hartree energ DENC   =   -129676.12856274
  -exchange      EXHF   =         0.00000000
  -V(xc)+E(xc)   XCENC  =       605.82807298
  PAW double counting   =     29362.27698855   -31059.68766564
  entropy T*S    EENTRO =        -0.06848427
  eigenvalues    EBANDS =     -1178.01105373
  atomic energy  EATOM  =     27000.92142019
  Solvation contrib.  Ediel  =         0.00000000
  ---------------------------------------------------
  free energy    TOTEN  =      -265.48786875 eV

  energy without entropy =     -265.41938448  energy(sigma->0) =     -265.47074768


--------------------------------------------------------------------------------------------------------




----------------------------------------- Iteration    1(  19)  ---------------------------------------


    POTLOK:  cpu time    0.25: real time    0.25
    SETDIJ:  cpu time    0.03: real time    0.03
     EDDAV:  cpu time   24.47: real time   24.47
       DOS:  cpu time    0.00: real time    0.00
    CHARGE:  cpu time    0.75: real time    0.75
    MIXING:  cpu time    0.01: real time    0.01
    --------------------------------------------
      LOOP:  cpu time   25.51: real time   25.52

 eigenvalue-minimisations  :  6632
 total energy-change (2. order) : 0.5605307E-01  (-0.2540727E-02)
 number of electron     314.0000985 magnetization      50.9475591
 augmentation part      165.0005429 magnetization      42.1818602

 Broyden mixing:
  rms(total) = 0.12708E+01    rms(broyden)= 0.12708E+01
  rms(prec ) = 0.12911E+01
  weight for this iteration     100.00

 eigenvalues of (default mixing * dielectric matrix)
  average eigenvalue GAMMA=   0.3353
  1.2549  0.6311  0.5640  0.5640  0.3468  0.2589  0.2589  0.1518  0.1518  0.1195
  0.1195  0.0854  0.0936  0.0936

 Free energy of the ion-electron system (eV)
  ---------------------------------------------------
  alpha Z        PSCENC =       331.32296425
  Ewald energy   TEWEN  =    104348.05845167
  -Hartree energ DENC   =   -129676.43607728
  -exchange      EXHF   =         0.00000000
  -V(xc)+E(xc)   XCENC  =       605.84648478
  PAW double counting   =     29363.16648636   -31060.90484300
  entropy T*S    EENTRO =        -0.06742990
  eigenvalues    EBANDS =     -1177.33927275
  atomic energy  EATOM  =     27000.92142019
  Solvation contrib.  Ediel  =         0.00000000
  ---------------------------------------------------
  free energy    TOTEN  =      -265.43181568 eV

  energy without entropy =     -265.36438578  energy(sigma->0) =     -265.41495821


--------------------------------------------------------------------------------------------------------




----------------------------------------- Iteration    1(  20)  ---------------------------------------


    POTLOK:  cpu time    0.25: real time    0.25
    SETDIJ:  cpu time    0.03: real time    0.03
     EDDAV:  cpu time   18.33: real time   18.33
       DOS:  cpu time    0.00: real time    0.00
    CHARGE:  cpu time    0.75: real time    0.75
    MIXING:  cpu time    0.01: real time    0.01
    --------------------------------------------
      LOOP:  cpu time   19.37: real time   19.37

 eigenvalue-minimisations  :  4648
 total energy-change (2. order) :-0.1147295E-01  (-0.3049933E-02)
 number of electron     314.0000985 magnetization      50.9437761
 augmentation part      165.0180893 magnetization      42.2382478

 Broyden mixing:
  rms(total) = 0.12201E+01    rms(broyden)= 0.12201E+01
  rms(prec ) = 0.12385E+01
  weight for this iteration     100.00

 eigenvalues of (default mixing * dielectric matrix)
  average eigenvalue GAMMA=   0.3120
  1.2546  0.5934  0.5638  0.5638  0.3478  0.2377  0.2377  0.1496  0.1496  0.1188
  0.1188  0.0854  0.0938  0.0938  0.0716

 Free energy of the ion-electron system (eV)
  ---------------------------------------------------
  alpha Z        PSCENC =       331.32296425
  Ewald energy   TEWEN  =    104348.05845167
  -Hartree energ DENC   =   -129677.03229714
  -exchange      EXHF   =         0.00000000
  -V(xc)+E(xc)   XCENC  =       605.92282146
  PAW double counting   =     29357.89881254   -31055.92015684
  entropy T*S    EENTRO =        -0.06654757
  eigenvalues    EBANDS =     -1176.54875719
  atomic energy  EATOM  =     27000.92142019
  Solvation contrib.  Ediel  =         0.00000000
  ---------------------------------------------------
  free energy    TOTEN  =      -265.44328863 eV

  energy without entropy =     -265.37674106  energy(sigma->0) =     -265.42665174


--------------------------------------------------------------------------------------------------------




----------------------------------------- Iteration    1(  21)  ---------------------------------------


    POTLOK:  cpu time    0.25: real time    0.25
    SETDIJ:  cpu time    0.03: real time    0.03
     EDDAV:  cpu time   18.28: real time   18.28
       DOS:  cpu time    0.00: real time    0.00
    CHARGE:  cpu time    0.75: real time    0.75
    MIXING:  cpu time    0.01: real time    0.01
    --------------------------------------------
      LOOP:  cpu time   19.33: real time   19.33

 eigenvalue-minimisations  :  4688
 total energy-change (2. order) :-0.2725320E-01  (-0.4392535E-02)
 number of electron     314.0000985 magnetization      50.8694320
 augmentation part      165.0307685 magnetization      42.1929282

 Broyden mixing:
  rms(total) = 0.12033E+01    rms(broyden)= 0.12033E+01
  rms(prec ) = 0.12250E+01
  weight for this iteration     100.00

[...]
     11     Co         -0.037         -0.035          0.938
     12     Co         -0.035         -0.038          0.928
     13     Co         -0.033         -0.033          0.937
     14     Co         -0.029         -0.032          0.931
     15     Co         -0.036         -0.034          0.938
     16     Co         -0.029         -0.032          0.929
     17     Co         -0.039         -0.036          0.938
     18     Co         -0.041         -0.036          0.938
     19     Co         -0.038         -0.036          0.934
     20     Co         -0.043         -0.038          0.937
     21     Co         -0.035         -0.032          0.935
     22     Co         -0.042         -0.036          0.941
     23     Co         -0.033         -0.028          0.933
     24     Co         -0.038         -0.030          0.929
     25     Co          0.043          0.038          1.049
     26     Co          0.027          0.030          1.054
     27     Co          0.046          0.045          1.036
     28     Co          0.076          0.074          0.991
     29     Co          0.016          0.020          1.058
     30     Co          0.028          0.026          1.057
     31     Co          0.013          0.021          1.055
     32     Co          0.000          0.012          1.077
     33     C          -0.136         -0.115          0.834
     34     C           0.063          0.040          0.648
     35     C          -0.153         -0.117          0.835
     36     O          -0.188         -0.140          1.004
     37     H           0.025          0.019          0.817
     38     H           0.057          0.045          0.723
     39     H           0.064          0.049          0.718
     40     H           0.016          0.006          0.876
     41     H           0.140          0.090          0.768
     42     H           0.052          0.042          0.727
     43     H           0.065          0.049          0.711
     44     H           0.045          0.033          0.795

  dDsC method for vdW energy calculation
  ---------------------------------------------------------------------------------------------

  Parameters of vdW forcefield:
            C6dDsC            XDM            ALPHAts        RELVOL
            (au)              (au)            (au)                
   ---------------------------------------------------------------
   Co        543.033         11.997         54.092          1.082
   Co        541.215         11.983         53.974          1.079
   Co        542.372         11.985         54.080          1.082
   Co        542.165         11.993         54.025          1.081
   Co        541.813         11.976         54.065          1.081
   Co        543.041         12.016         54.010          1.080
   Co        542.370         11.981         54.098          1.082
   Co        541.813         12.002         53.951          1.079
   Co        325.100          8.294         46.846          0.937
   Co        322.730          8.285         46.553          0.931
   Co        325.329          8.290         46.898          0.938
   Co        321.501          8.279         46.408          0.928
   Co        325.545          8.301         46.865          0.937
   Co        322.871          8.289         46.549          0.931
   Co        325.733          8.297         46.915          0.938
   Co        322.003          8.282         46.462          0.929
   Co        328.434          8.372         46.882          0.938
   Co        327.839          8.349         46.924          0.938
   Co        326.492          8.357         46.690          0.934
   Co        328.126          8.370         46.850          0.937
   Co        328.613          8.397         46.767          0.935
   Co        331.011          8.403         47.074          0.941
   Co        325.175          8.334         46.631          0.933
   Co        317.758          8.172         46.469          0.929
   Co        507.949         11.573         52.451          1.049
   Co        509.548         11.556         52.696          1.054
   Co        490.266         11.313         51.789          1.036
   Co        432.428         10.428         49.557          0.991
   Co        511.729         11.563         52.887          1.058
   Co        518.593         11.724         52.863          1.057
   Co        501.329         11.354         52.766          1.055
   Co        528.858         11.735         53.858          1.077
   C          46.470          5.547         10.011          0.834
   C          31.015          4.766          7.776          0.648
   C          46.028          5.488         10.022          0.835
   O          27.523          6.066          5.422          1.004
   H           7.454          2.422          3.678          0.817
   H           4.671          1.716          3.253          0.723
   H           4.589          1.697          3.232          0.718
   H           8.207          2.488          3.942          0.876
   H           6.491          2.244          3.456          0.768
   H           4.694          1.714          3.274          0.727
   H           4.428          1.655          3.198          0.711
   H           6.551          2.187          3.579          0.795

  IVDW =   4
  VDW_RADIUS =    50.000 A
  VDW_S6 aka ATT0 =    13.960
  VDW_SR aka BTT0 =     1.320
  LVDW_ONECELL = F F F

  Number of pair interactions contributing to vdW energy:  340471
  Edisp (eV):   -6.96477
    FORVDW:  cpu time   10.96: real time   10.96

  FORCE on cell =-STRESS in cart. coord.  units (eV):
  Direction    XX          YY          ZZ          XY          YZ          ZX
  --------------------------------------------------------------------------------------
  Alpha Z   331.32296   331.32296   331.32296
  Ewald  119571.90075119829.63020************    35.84971  -231.76414    88.30997
  Hartree125702.22661125830.38653************    22.02374  -154.47576    67.72992
  E(xc)   -1572.53503 -1572.60611 -1575.21145     0.04427    -0.21313     0.00979
  Local  ************************250463.21256   -55.27157   376.55518  -161.36077
  n-local  -238.75456  -231.03754  -256.78777     0.41388    -1.80299     0.42300
  augment  4994.72698  4992.29037  4992.90541    -0.07153     0.82176    -0.85131
  Kinetic  2801.85503  2795.98904  2830.52624    -3.00585    10.66981     5.72314
  Fock        0.00000     0.00000     0.00000     0.00000     0.00000     0.00000
  vdW        -8.86682    -8.61884    -4.51266    -0.01542     0.06552    -0.01639
  -------------------------------------------------------------------------------------
  Total     -24.15902   -23.25291    -7.60614    -0.03275    -0.14375    -0.03265
  in kB     -25.36311   -24.41183    -7.98523    -0.03439    -0.15092    -0.03428
  external pressure =      -19.25 kB  Pullay stress =        0.00 kB


 VOLUME and BASIS-vectors are now :
 -----------------------------------------------------------------------------
  energy-cutoff  :      400.00
  volume of cell :     1526.12
      direct lattice vectors                 reciprocal lattice vectors
     8.559999890  0.000000000  0.000000000     0.116822431  0.000000000  0.000000000
     0.000000000  8.019998610  0.000000000     0.000000000  0.124688301  0.000000000
     0.000000000  0.000000000 22.230000000     0.000000000  0.000000000  0.044984256

  length of vectors
     8.559999890  8.019998610 22.230000000     0.116822431  0.124688301  0.044984256


 FORCES acting on ions
    electron-ion (+dipol)            ewald-force                    non-local-force                 convergence-correction
 -----------------------------------------------------------------------------------------------
   0.483E+02 -.260E+01 0.196E+04   -.468E+02 0.267E+01 -.196E+04   -.120E+01 -.512E-01 -.417E+01   -.287E-01 0.747E-02 0.302E-01
   -.446E+02 0.221E+01 0.196E+04   0.432E+02 -.220E+01 -.196E+04   0.123E+01 -.253E-02 -.422E+01   -.241E-01 -.862E-02 0.259E-01
   0.485E+02 0.255E+01 0.197E+04   -.470E+02 -.263E+01 -.196E+04   -.121E+01 0.628E-01 -.421E+01   -.947E-02 -.750E-02 0.171E-02
   -.440E+02 -.219E+01 0.197E+04   0.427E+02 0.219E+01 -.196E+04   0.113E+01 -.938E-02 -.415E+01   -.256E-01 0.864E-02 -.722E-02
   0.476E+02 -.330E+01 0.197E+04   -.462E+02 0.325E+01 -.196E+04   -.117E+01 0.515E-01 -.420E+01   0.313E-01 0.702E-02 0.659E-02
   -.512E+02 0.252E+01 0.197E+04   0.498E+02 -.250E+01 -.196E+04   0.113E+01 0.481E-02 -.415E+01   0.178E-01 -.313E-01 0.563E-02
   0.477E+02 0.343E+01 0.197E+04   -.463E+02 -.338E+01 -.197E+04   -.117E+01 -.438E-01 -.420E+01   0.119E-01 -.703E-02 -.379E-01
   -.517E+02 -.258E+01 0.197E+04   0.503E+02 0.257E+01 -.197E+04   0.123E+01 -.126E-01 -.423E+01   0.192E-01 0.313E-01 -.260E-01
   0.181E+01 -.665E+01 0.862E+03   -.156E+01 0.660E+01 -.864E+03   -.261E+00 0.117E-02 0.845E+00   -.192E-01 0.326E-01 0.296E-01
   0.913E+01 0.686E+01 0.867E+03   -.933E+01 -.683E+01 -.868E+03   0.285E+00 0.182E-01 0.859E+00   -.426E-02 -.382E-01 -.107E-01
   0.351E+01 0.666E+01 0.875E+03   -.322E+01 -.659E+01 -.876E+03   -.264E+00 -.160E-01 0.838E+00   -.366E-01 -.325E-01 -.123E-01
   0.122E+02 -.715E+01 0.878E+03   -.124E+02 0.712E+01 -.879E+03   0.270E+00 -.748E-03 0.396E+00   -.120E-02 0.384E-01 -.293E-01
   -.146E+02 -.852E+01 0.861E+03   0.147E+02 0.849E+01 -.863E+03   -.280E+00 0.948E-02 0.775E+00   0.189E-01 0.345E-01 -.957E-02
   0.325E+01 0.497E+01 0.852E+03   -.347E+01 -.493E+01 -.853E+03   0.262E+00 0.312E-02 0.785E+00   0.964E-02 -.383E-01 0.280E-01
   -.171E+02 0.860E+01 0.873E+03   0.172E+02 -.856E+01 -.874E+03   -.273E+00 -.183E-01 0.771E+00   0.355E-01 -.345E-01 -.652E-01
   -.230E+00 -.486E+01 0.862E+03   0.484E-01 0.482E+01 -.863E+03   0.233E+00 -.237E-02 0.767E+00   0.573E-02 0.383E-01 -.601E-01
   -.220E+02 -.121E+02 -.560E+03   0.224E+02 0.120E+02 0.561E+03   -.419E+00 -.129E-01 -.746E+00   0.105E-02 0.809E-01 -.117E-01
   0.388E+02 0.127E+02 -.550E+03   -.393E+02 -.127E+02 0.551E+03   0.478E+00 -.236E-02 -.758E+00   -.514E-01 -.407E-01 0.137E-01
   -.206E+02 0.122E+02 -.540E+03   0.210E+02 -.121E+02 0.541E+03   -.448E+00 0.109E-01 -.721E+00   0.322E-01 -.797E-01 -.331E-01
   0.521E+02 -.129E+02 -.526E+03   -.523E+02 0.129E+02 0.527E+03   0.157E+00 -.486E-04 -.820E+00   0.594E-02 0.408E-01 -.111E-01
   -.227E+02 -.265E+02 -.520E+03   0.232E+02 0.264E+02 0.520E+03   -.428E+00 0.956E-01 -.770E+00   0.883E-03 0.252E-01 -.519E-02
   0.624E+01 0.156E+02 -.542E+03   -.665E+01 -.155E+02 0.543E+03   0.361E+00 0.750E-02 -.843E+00   0.493E-01 -.811E-01 -.215E-01
   -.226E+02 0.266E+02 -.473E+03   0.230E+02 -.266E+02 0.474E+03   -.402E+00 -.350E-01 -.721E+00   -.280E-01 -.248E-01 -.241E-01
   -.430E+01 -.164E+02 -.477E+03   0.389E+01 0.164E+02 0.478E+03   0.426E+00 -.152E-01 -.526E+00   -.932E-02 0.807E-01 -.510E-01
   0.100E+03 -.397E+02 -.164E+04   -.991E+02 0.398E+02 0.164E+04   -.955E+00 -.122E+00 0.396E+01   -.222E-01 0.327E-01 -.123E-01
   -.401E+02 0.417E+02 -.162E+04   0.391E+02 -.417E+02 0.161E+04   0.103E+01 0.107E-01 0.365E+01   -.371E-01 -.579E-01 -.127E-01
   0.122E+03 0.433E+02 -.156E+04   -.121E+03 -.435E+02 0.156E+04   -.888E+00 0.166E+00 0.409E+01   -.395E-01 -.338E-01 -.907E-03
   0.395E+02 -.562E+02 -.147E+04   -.403E+02 0.560E+02 0.146E+04   0.813E+00 0.146E+00 0.344E+01   -.303E-01 0.567E-01 0.163E-01
   0.154E+02 -.471E+02 -.164E+04   -.144E+02 0.469E+02 0.163E+04   -.105E+01 0.127E+00 0.352E+01   0.139E-01 0.847E-01 -.322E-01
   -.737E+02 0.207E+02 -.167E+04   0.725E+02 -.207E+02 0.167E+04   0.111E+01 0.459E-02 0.382E+01   0.366E-01 -.567E-01 -.334E-01
   -.853E+01 0.503E+02 -.158E+04   0.966E+01 -.501E+02 0.157E+04   -.114E+01 -.975E-01 0.342E+01   0.333E-01 -.860E-01 -.291E-02
   -.107E+03 -.225E+02 -.164E+04   0.105E+03 0.224E+02 0.164E+04   0.138E+01 0.128E-01 0.314E+01   0.343E-01 0.570E-01 -.244E-01
   0.134E+03 0.270E+02 -.886E+03   -.134E+03 -.267E+02 0.886E+03   0.460E+00 -.357E+00 -.116E+00   -.947E-03 0.367E-03 -.308E-02
   -.795E+01 0.975E+02 -.877E+03   0.745E+01 -.104E+03 0.880E+03   0.519E+00 0.615E+01 -.304E+01   -.517E-02 0.780E-03 0.410E-02
   -.106E+03 0.267E+02 -.875E+03   0.106E+03 -.264E+02 0.875E+03   -.173E+00 -.335E+00 -.161E+00   -.279E-02 -.569E-03 -.454E-03
   -.222E+02 -.187E+03 -.132E+04   -.302E+01 0.213E+03 0.133E+04   0.252E+02 -.260E+02 -.315E+01   -.153E-01 0.165E-01 0.383E-02
   0.593E+02 0.166E+01 -.195E+03   -.630E+02 -.138E+01 0.191E+03   0.368E+01 -.289E+00 0.389E+01   -.110E-03 0.365E-04 -.502E-03
   0.297E+02 -.449E+02 -.235E+03   -.306E+02 0.492E+02 0.238E+03   0.864E+00 -.432E+01 -.330E+01   0.327E-03 -.238E-03 -.195E-02
   0.268E+02 0.537E+02 -.228E+03   -.278E+02 -.584E+02 0.231E+03   0.948E+00 0.466E+01 -.282E+01   0.169E-03 0.256E-03 -.183E-02
   -.100E+02 0.627E+02 -.192E+03   0.106E+02 -.670E+02 0.188E+03   -.582E+00 0.426E+01 0.351E+01   -.153E-02 -.116E-02 0.239E-02
   -.844E+02 -.233E+02 -.196E+03   0.913E+02 0.240E+02 0.193E+03   -.692E+01 -.705E+00 0.284E+01   -.286E-02 0.404E-02 0.293E-02
   -.123E+02 -.452E+02 -.228E+03   0.120E+02 0.495E+02 0.232E+03   0.328E+00 -.435E+01 -.337E+01   -.684E-03 -.477E-03 -.131E-02
   -.115E+02 0.532E+02 -.221E+03   0.113E+02 -.578E+02 0.224E+03   0.235E+00 0.459E+01 -.301E+01   -.564E-03 0.350E-03 -.138E-02
   -.663E+02 0.424E+01 -.196E+03   0.712E+02 -.417E+01 0.194E+03   -.492E+01 -.633E-01 0.240E+01   -.408E-03 -.423E-03 0.667E-03
 -----------------------------------------------------------------------------------------------
   -.195E+02 0.164E+02 0.116E+02   0.142E-13 0.941E-13 0.000E+00   0.196E+02 -.164E+02 -.107E+02   -.395E-01 0.175E-01 -.374E+00
 
 
 POSITION                                       TOTAL-FORCE (eV/Angst)
 -----------------------------------------------------------------------------------
      4.27999      4.01000      0.00000         0.233577      0.016590      0.513768
      5.70701      6.01499      0.00000        -0.250395     -0.001112      0.503533
      4.27999      0.00000      0.00000         0.229459     -0.027921      0.507419
      5.70701      2.00500      0.00000        -0.227085      0.004647      0.506893
      0.00000      4.01000      0.00000         0.239752      0.004290      0.525695
      1.42700      6.01499      0.00000        -0.215515     -0.002892      0.526366
      0.00000      0.00000      0.00000         0.224063     -0.002851      0.511637
      1.42700      2.00500      0.00000        -0.199429      0.001149      0.529830
      6.42000      4.01000      1.23500        -0.028678     -0.015831     -0.537368
      7.84699      6.01499      1.23500         0.082602      0.007882     -0.520783
      6.42000      0.00000      1.23500        -0.013394      0.014164     -0.574234
      7.84699      2.00500      1.23500        -0.005437      0.009977     -0.316650
      2.14000      4.01000      1.23500        -0.091256      0.014747     -0.550068
      3.56700      6.01499      1.23500         0.056669     -0.001667     -0.517126
      2.14000      0.00000      1.23500        -0.086751     -0.010590     -0.598756
      3.56700      2.00500      1.23500         0.055083     -0.004395     -0.514194
      4.29509      3.99655      2.50399         0.001581      0.002030      0.000070
      5.68845      6.01245      2.50145        -0.006525      0.004241      0.004070
      4.30115      0.01171      2.49989         0.003788      0.004559      0.006343
      5.70489      2.00718      2.49798        -0.003688      0.000033     -0.000310
      0.00969      4.00703      2.50108         0.002830      0.000279     -0.005998
      1.41282      6.01456      2.50445        -0.003714      0.004788     -0.002781
      0.01248      0.00721      2.49095        -0.000583     -0.000300      0.004858
      1.40863      2.00503      2.49953         0.000759      0.001468     -0.001463
      6.45805      4.02318      3.61912         0.004273     -0.000057     -0.003121
      7.79482      6.01653      3.61260        -0.001523     -0.001264     -0.000765
      6.45621      8.00736      3.60419        -0.002319     -0.003493      0.001699
      7.76480      2.02146      3.69276         0.006910     -0.002080      0.000228
      2.21014      4.01635      3.61914        -0.000093     -0.004174     -0.000203
      3.52709      6.01270      3.62875        -0.003124      0.000846     -0.002073
      2.22650      8.00749      3.60876        -0.006838     -0.002452     -0.001339
      3.49072      2.00243      3.63228         0.000561     -0.001404      0.004365
      7.19276      0.64947      6.90940        -0.001756     -0.006025     -0.001351
      0.03128      0.66598      6.34051         0.009640     -0.002143     -0.010749
      1.13967      0.64647      7.37013         0.007769     -0.001526      0.002664
      0.13939      1.89032      5.54559         0.003751      0.003629     -0.000986
      6.44983      0.70037      6.09232        -0.002421     -0.003414     -0.002667
      7.02999      1.51109      7.57291        -0.001561     -0.001118      0.001444
      7.01953      7.74077      7.46932         0.002254     -0.006802      0.000107
      0.15330      7.83332      5.64138         0.000824      0.003691      0.004725
      1.06518      1.95503      5.17886        -0.000994     -0.002473      0.003078
      1.06625      1.51415      8.04136        -0.004910      0.000906      0.001240
      1.08057      7.74563      7.96827         0.000040      0.002920     -0.001580
      2.12304      0.66390      6.87283        -0.008195      0.003145      0.004534
 -----------------------------------------------------------------------------------
    total drift:                                0.041404      0.025350      0.555414


--------------------------------------------------------------------------------------------------------



  FREE ENERGIE OF THE ION-ELECTRON SYSTEM (eV)
  ---------------------------------------------------
  free  energy   TOTEN  =      -274.04328367 eV

  energy  without entropy=     -273.99376673  energy(sigma->0) =     -274.03090444
 


--------------------------------------------------------------------------------------------------------


    POTLOK:  cpu time    0.28: real time    0.28


--------------------------------------------------------------------------------------------------------


 stress matrix after NEB project (eV)
    -24.15902     -0.03275     -0.03265
     -0.03275    -23.25291     -0.14375
     -0.03265     -0.14375     -7.60614
  FORCES: max atom, RMS     0.014596    0.005058
  FORCE total and by dimension    0.033553    0.010749
  Stress total and by dimension   34.383941   24.159024


--------------------------------------------------------------------------------------------------------


  
 reached required accuracy - stopping structural energy minimisation
     LOOP+:  cpu time 1248.41: real time 1248.47
    4ORBIT:  cpu time    0.00: real time    0.00

 total amount of memory used by VASP on root node   203383. kBytes
========================================================================

   base      :      30000. kBytes
   nonlr-proj:       7825. kBytes
   fftplans  :       7367. kBytes
   grid      :      34170. kBytes
   one-center:       1368. kBytes
   wavefun   :     122653. kBytes
 
  
  
 General timing and accounting informations for this job:
 ========================================================
  
                  Total CPU time used (sec):     1253.876
                            User time (sec):     1252.748
                          System time (sec):        1.128
                         Elapsed time (sec):     1255.175
  
                   Maximum memory used (kb):      244336.
                   Average memory used (kb):           0.
  
                          Minor page faults:       291490
                          Major page faults:           97
                 Voluntary context switches:         1007
