 vasp.5.3.5 31Mar14 (build Jan 31 2018 16:04:57) complex                        
  
 executed on             LinuxIFC date 2018.12.29  17:06:23
 running on    8 total cores
 distrk:  each k-point on    8 cores,    1 groups
 distr:  one band on NCORES_PER_BAND=   1 cores,    8 groups


--------------------------------------------------------------------------------------------------------


 INCAR:
 POTCAR:    PAW_PBE Co 02Aug2007                  
 POTCAR:    PAW_PBE C 08Apr2002                   
 POTCAR:    PAW_PBE O 08Apr2002                   
 POTCAR:    PAW_PBE H 15Jun2001                   

 ----------------------------------------------------------------------------- 
|                                                                             |
|           W    W    AA    RRRRR   N    N  II  N    N   GGGG   !!!           |
|           W    W   A  A   R    R  NN   N  II  NN   N  G    G  !!!           |
|           W    W  A    A  R    R  N N  N  II  N N  N  G       !!!           |
|           W WW W  AAAAAA  RRRRR   N  N N  II  N  N N  G  GGG   !            |
|           WW  WW  A    A  R   R   N   NN  II  N   NN  G    G                |
|           W    W  A    A  R    R  N    N  II  N    N   GGGG   !!!           |
|                                                                             |
|      For optimal performance we recommend to set                            |
|        NCORE= 4 - approx SQRT( number of cores)                             |
|      NCORE specifies how many cores store one orbital (NPAR=cpu/NCORE).     |
|      This setting can  greatly improve the performance of VASP for DFT.     |
|      The default, NPAR=number of cores might be grossly inefficient         |
|      on modern multi-core architectures or massively parallel machines.     |
|      Do your own testing !!!!                                               |
|      Unfortunately you need to use the default for GW and RPA calculations. |
|      (for HF NCORE is supported but not extensively tested yet)             |
|                                                                             |
 ----------------------------------------------------------------------------- 

 POTCAR:    PAW_PBE Co 02Aug2007                  
   VRHFIN =Co: d8 s1                                                            
   LEXCH  = PE                                                                  
   EATOM  =   813.3670 eV,   59.7808 Ry                                         
                                                                                
   TITEL  = PAW_PBE Co 02Aug2007                                                
   LULTRA =        F    use ultrasoft PP ?                                      
   IUNSCR =        1    unscreen: 0-lin 1-nonlin 2-no                           
   RPACOR =    2.000    partial core radius                                     
   POMASS =   58.933; ZVAL   =    9.000    mass and valenz                      
   RCORE  =    2.300    outmost cutoff radius                                   
   RWIGS  =    2.460; RWIGS  =    1.302    wigner-seitz radius (au A)           
   ENMAX  =  267.968; ENMIN  =  200.976 eV                                      
   RCLOC  =    1.203    cutoff for local pot                                    
   LCOR   =        T    correct aug charges                                     
   LPAW   =        T    paw PP                                                  
   EAUG   =  477.818                                                            
   DEXC   =    0.000                                                            
   RMAX   =    2.360    core radius for proj-oper                               
   RAUG   =    1.300    factor for augmentation sphere                          
   RDEP   =    2.393    radius for radial grids                                 
   RDEPT  =    1.864    core radius for aug-charge                              
                                                                                
   Atomic configuration                                                         
    9 entries                                                                   
     n  l   j            E        occ.                                          
     1  0  0.50     -7587.6674   2.0000                                         
     2  0  0.50      -893.6084   2.0000                                         
     2  1  1.50      -764.5805   6.0000                                         
     3  0  0.50       -97.5973   2.0000                                         
     3  1  1.50       -60.9648   6.0000                                         
     3  2  2.50        -4.2382   8.0000                                         
     4  0  0.50        -4.3746   1.0000                                         
     4  1  1.50        -4.0817   0.0000                                         
     4  3  2.50        -1.3606   0.0000                                         
   Description                                                                  
     l       E           TYP  RCUT    TYP  RCUT                                 
     2     -4.2382362     23  2.300                                             
     2     -5.5988188     23  2.300                                             
     0     -4.3745797     23  2.300                                             
     0      5.7660125     23  2.300                                             
     1     -2.7211652     23  2.300                                             
     1     16.9860234     23  2.300                                             
  local pseudopotential read in
  partial core-charges read in
  partial kinetic energy density read in
  atomic valenz-charges read in
  non local Contribution for L=           2  read in
    real space projection operators read in
  non local Contribution for L=           2  read in
    real space projection operators read in
  non local Contribution for L=           0  read in
    real space projection operators read in
  non local Contribution for L=           0  read in
    real space projection operators read in
  non local Contribution for L=           1  read in
    real space projection operators read in
  non local Contribution for L=           1  read in
    real space projection operators read in
    PAW grid and wavefunctions read in
 
   number of l-projection  operators is LMAX  =           6
   number of lm-projection operators is LMMAX =          18
 
 POTCAR:    PAW_PBE C 08Apr2002                   
   VRHFIN =C: s2p2                                                              
   LEXCH  = PE                                                                  
   EATOM  =   147.1560 eV,   10.8157 Ry                                         
                                                                                
   TITEL  = PAW_PBE C 08Apr2002                                                 
   LULTRA =        F    use ultrasoft PP ?                                      
   IUNSCR =        1    unscreen: 0-lin 1-nonlin 2-no                           
   RPACOR =    1.200    partial core radius                                     
   POMASS =   12.011; ZVAL   =    4.000    mass and valenz                      
   RCORE  =    1.500    outmost cutoff radius                                   
   RWIGS  =    1.630; RWIGS  =    0.863    wigner-seitz radius (au A)           
   ENMAX  =  400.000; ENMIN  =  300.000 eV                                      
   ICORE  =        2    local potential                                         
   LCOR   =        T    correct aug charges                                     
   LPAW   =        T    paw PP                                                  
   EAUG   =  644.873                                                            
   DEXC   =    0.000                                                            
   RMAX   =    1.529    core radius for proj-oper                               
   RAUG   =    1.300    factor for augmentation sphere                          
   RDEP   =    1.501    radius for radial grids                                 
   RDEPT  =    1.300    core radius for aug-charge                              
                                                                                
   Atomic configuration                                                         
    4 entries                                                                   
     n  l   j            E        occ.                                          
     1  0  0.50      -273.3789   2.0000                                         
     2  0  0.50       -13.7508   2.0000                                         
     2  1  0.50        -5.2854   2.0000                                         
     3  2  1.50        -5.4423   0.0000                                         
   Description                                                                  
     l       E           TYP  RCUT    TYP  RCUT                                 
     0    -13.7508458     23  1.200                                             
     0     -8.2022199     23  1.200                                             
     1     -5.2854383     23  1.500                                             
     1     34.0145650     23  1.500                                             
     2     -5.4423304      7  1.500                                             
  local pseudopotential read in
  partial core-charges read in
  partial kinetic energy density read in
  atomic valenz-charges read in
  non local Contribution for L=           0  read in
    real space projection operators read in
  non local Contribution for L=           0  read in
    real space projection operators read in
  non local Contribution for L=           1  read in
    real space projection operators read in
  non local Contribution for L=           1  read in
    real space projection operators read in
    PAW grid and wavefunctions read in
 
   number of l-projection  operators is LMAX  =           4
   number of lm-projection operators is LMMAX =           8
 
 POTCAR:    PAW_PBE O 08Apr2002                   
   VRHFIN =O: s2p4                                                              
   LEXCH  = PE                                                                  
   EATOM  =   432.3788 eV,   31.7789 Ry                                         
                                                                                
   TITEL  = PAW_PBE O 08Apr2002                                                 
   LULTRA =        F    use ultrasoft PP ?                                      
   IUNSCR =        1    unscreen: 0-lin 1-nonlin 2-no                           
   RPACOR =    1.200    partial core radius                                     
   POMASS =   16.000; ZVAL   =    6.000    mass and valenz                      
   RCORE  =    1.520    outmost cutoff radius                                   
   RWIGS  =    1.550; RWIGS  =    0.820    wigner-seitz radius (au A)           
   ENMAX  =  400.000; ENMIN  =  300.000 eV                                      
   ICORE  =        2    local potential                                         
   LCOR   =        T    correct aug charges                                     
   LPAW   =        T    paw PP                                                  
   EAUG   =  605.392                                                            
   DEXC   =    0.000                                                            
   RMAX   =    1.553    core radius for proj-oper                               
   RAUG   =    1.300    factor for augmentation sphere                          
   RDEP   =    1.550    radius for radial grids                                 
   RDEPT  =    1.329    core radius for aug-charge                              
                                                                                
   Atomic configuration                                                         
    4 entries                                                                   
     n  l   j            E        occ.                                          
     1  0  0.50      -514.6923   2.0000                                         
     2  0  0.50       -23.9615   2.0000                                         
     2  1  0.50        -9.0305   4.0000                                         
     3  2  1.50        -9.5241   0.0000                                         
   Description                                                                  
     l       E           TYP  RCUT    TYP  RCUT                                 
     0    -23.9615318     23  1.200                                             
     0     -9.5240782     23  1.200                                             
     1     -9.0304911     23  1.520                                             
     1      8.1634956     23  1.520                                             
     2     -9.5240782      7  1.500                                             
  local pseudopotential read in
  partial core-charges read in
  partial kinetic energy density read in
  kinetic energy density of atom read in
  atomic valenz-charges read in
  non local Contribution for L=           0  read in
    real space projection operators read in
  non local Contribution for L=           0  read in
    real space projection operators read in
  non local Contribution for L=           1  read in
    real space projection operators read in
  non local Contribution for L=           1  read in
    real space projection operators read in
    PAW grid and wavefunctions read in
 
   number of l-projection  operators is LMAX  =           4
   number of lm-projection operators is LMMAX =           8
 
 POTCAR:    PAW_PBE H 15Jun2001                   
   VRHFIN =H: ultrasoft test                                                    
   LEXCH  = PE                                                                  
   EATOM  =    12.4884 eV,    0.9179 Ry                                         
                                                                                
   TITEL  = PAW_PBE H 15Jun2001                                                 
   LULTRA =        F    use ultrasoft PP ?                                      
   IUNSCR =        0    unscreen: 0-lin 1-nonlin 2-no                           
   RPACOR =    0.000    partial core radius                                     
   POMASS =    1.000; ZVAL   =    1.000    mass and valenz                      
   RCORE  =    1.100    outmost cutoff radius                                   
   RWIGS  =    0.700; RWIGS  =    0.370    wigner-seitz radius (au A)           
   ENMAX  =  250.000; ENMIN  =  200.000 eV                                      
   RCLOC  =    0.701    cutoff for local pot                                    
   LCOR   =        T    correct aug charges                                     
   LPAW   =        T    paw PP                                                  
   EAUG   =  400.000                                                            
   RMAX   =    1.123    core radius for proj-oper                               
   RAUG   =    1.200    factor for augmentation sphere                          
   RDEP   =    1.112    radius for radial grids                                 
   RDEPT  =    0.926    core radius for aug-charge                              
                                                                                
   Atomic configuration                                                         
    2 entries                                                                   
     n  l   j            E        occ.                                          
     1  0  0.50        -6.4927   1.0000                                         
     2  1  0.50        -3.4015   0.0000                                         
   Description                                                                  
     l       E           TYP  RCUT    TYP  RCUT                                 
     0     -6.4927494     23  1.100                                             
     0      6.8029130     23  1.100                                             
     1     -4.0817478     23  1.100                                             
  local pseudopotential read in
  atomic valenz-charges read in
  non local Contribution for L=           0  read in
    real space projection operators read in
  non local Contribution for L=           0  read in
    real space projection operators read in
  non local Contribution for L=           1  read in
    real space projection operators read in
    PAW grid and wavefunctions read in
 
   number of l-projection  operators is LMAX  =           3
   number of lm-projection operators is LMMAX =           5
 
 Optimization of the real space projectors (new method)

 maximal supplied QI-value         = 16.25
 optimisation between [QCUT,QGAM] = [ 10.24, 20.48] = [ 29.35,117.42] Ry 
 Optimized for a Real-space Cutoff    1.34 Angstroem

   l    n(q)    QCUT    max X(q) W(low)/X(q) W(high)/X(q)  e(spline) 
   2      7    10.239    65.824    0.41E-03    0.10E-02    0.11E-06
   2      7    10.239    61.429    0.41E-03    0.10E-02    0.11E-06
   0      8    10.239    56.174    0.42E-03    0.17E-03    0.96E-07
   0      8    10.239    31.263    0.38E-03    0.16E-03    0.87E-07
   1      8    10.239    19.828    0.20E-03    0.56E-03    0.13E-06
   1      8    10.239    15.139    0.15E-03    0.46E-03    0.11E-06
 Optimization of the real space projectors (new method)

 maximal supplied QI-value         = 25.13
 optimisation between [QCUT,QGAM] = [ 10.05, 20.36] = [ 28.30,116.06] Ry 
 Optimized for a Real-space Cutoff    1.30 Angstroem

   l    n(q)    QCUT    max X(q) W(low)/X(q) W(high)/X(q)  e(spline) 
   0      8    10.053   115.676    0.49E-03    0.72E-03    0.18E-06
   0      8    10.053    87.132    0.49E-03    0.71E-03    0.18E-06
   1      7    10.053     4.429    0.32E-03    0.31E-03    0.18E-06
   1      7    10.053     2.733    0.23E-03    0.19E-03    0.20E-06
 Optimization of the real space projectors (new method)

 maximal supplied QI-value         = 24.76
 optimisation between [QCUT,QGAM] = [ 10.15, 20.30] = [ 28.85,115.39] Ry 
 Optimized for a Real-space Cutoff    1.38 Angstroem

   l    n(q)    QCUT    max X(q) W(low)/X(q) W(high)/X(q)  e(spline) 
   0      8    10.150    20.381    0.22E-03    0.32E-03    0.29E-06
   0      8    10.150    15.268    0.23E-03    0.35E-03    0.30E-06
   1      8    10.150     5.964    0.46E-03    0.53E-03    0.21E-06
   1      8    10.150     5.382    0.38E-03    0.45E-03    0.19E-06
 Optimization of the real space projectors (new method)

 maximal supplied QI-value         = 34.20
 optimisation between [QCUT,QGAM] = [  9.92, 20.18] = [ 27.55,114.04] Ry 
 Optimized for a Real-space Cutoff    1.26 Angstroem

   l    n(q)    QCUT    max X(q) W(low)/X(q) W(high)/X(q)  e(spline) 
   0      8     9.919    19.460    0.50E-03    0.23E-03    0.29E-06
   0      8     9.919    12.209    0.48E-03    0.23E-03    0.28E-06
   1      7     9.919     4.655    0.17E-03    0.75E-03    0.30E-06
  PAW_PBE Co 02Aug2007                  :
 energy of atom  1       EATOM= -813.3670
 kinetic energy error for atom=    0.0093 (will be added to EATOM!!)
  PAW_PBE C 08Apr2002                   :
 energy of atom  2       EATOM= -147.1560
 kinetic energy error for atom=    0.0288 (will be added to EATOM!!)
  PAW_PBE O 08Apr2002                   :
 energy of atom  3       EATOM= -432.3788
 kinetic energy error for atom=    0.1156 (will be added to EATOM!!)
  PAW_PBE H 15Jun2001                   :
 energy of atom  4       EATOM=  -12.4884
 kinetic energy error for atom=    0.0098 (will be added to EATOM!!)
 
 
 POSCAR: Co C O H                                
  positions in direct lattice
  velocities in cartesian coordinates
 exchange correlation table for  LEXCH =        8
   RHO(1)=    0.500       N(1)  =     2000
   RHO(2)=  100.500       N(2)  =     4000

 VTST: version 3.1, (03/28/14)

 CHAIN: initializing optimizer
 
 OPT: Using Conjugate-Gradient optimizer
 OPT: CG, Init
 OPT: CG, FDSTEP      0.005000
 OPT: CG, MAXMOVE      0.200000
 
 CHAIN: Read ICHAIN            2
 
 POSCAR: Co C O H                                
  positions in direct lattice
  velocities in cartesian coordinates
 CHAIN: Running the Dimer method

 Dimer: -----------------
 Dimer: Input Parameters
 Dimer:   Seed      0
 Dimer: RotMax      1
 Dimer:     dR      0.005000
 Dimer:  FNMax      1.000000
 Dimer:  FNMin      0.010000
 Dimer: -----------------
 


--------------------------------------------------------------------------------------------------------


 ion  position               nearest neighbor table
   1  0.222  0.111  0.000-   4 2.47   5 2.47  13 2.47   3 2.47   2 2.47  10 2.47  11 2.47   9 2.47
                             8 2.47
   2  0.556  0.111  0.000-   5 2.47   6 2.47  14 2.47   3 2.47   1 2.47  12 2.47  11 2.47   9 2.47
                             7 2.47
   3  0.889  0.111  0.000-   4 2.47   6 2.47  15 2.47   1 2.47   2 2.47  10 2.47  12 2.47   8 2.47
                             7 2.47
   4  0.222  0.444  0.000-   9 2.47   7 2.47   3 2.47   1 2.47   6 2.47   5 2.47  16 2.47  15 2.47
                            13 2.47
   5  0.556  0.444  0.000-   7 2.47   8 2.47   1 2.47   2 2.47   4 2.47   6 2.47  17 2.47  14 2.47
                            13 2.47
   6  0.889  0.444  0.000-   9 2.47   8 2.47   2 2.47   3 2.47   4 2.47   5 2.47  18 2.47  15 2.47
                            14 2.47
   7  0.556  0.778  0.000-   5 2.47   4 2.47  16 2.47  17 2.47   8 2.47   9 2.47  12 2.47   3 2.47
                             2 2.47
   8  0.889  0.778  0.000-   5 2.47   6 2.47  17 2.47  18 2.47   7 2.47   9 2.47  10 2.47   3 2.47
                             1 2.47
   9  0.222  0.778  0.000-   4 2.47   6 2.47  18 2.47  16 2.47   7 2.47   8 2.47  11 2.47   2 2.47
                             1 2.47
  10  0.000  0.000  0.082-  13 2.47  15 2.47  11 2.47  12 2.47  17 2.47  18 2.47   1 2.47   3 2.47
                             8 2.47  21 2.48  26 2.48  19 2.50
  11  0.333  0.000  0.082-  14 2.47  13 2.47  12 2.47  10 2.47  16 2.47  18 2.47   2 2.47   1 2.47
                             9 2.47  27 2.49  19 2.49  20 2.49
  12  0.667  0.000  0.082-  14 2.47  15 2.47  11 2.47  10 2.47  16 2.47  17 2.47   2 2.47   3 2.47
                             7 2.47  25 2.47  21 2.48  20 2.49
  13  0.333  0.333  0.082-  10 2.47  11 2.47   1 2.47  14 2.47  15 2.47  16 2.47  17 2.47   5 2.47
                             4 2.47  22 2.47  19 2.48  23 2.51
  14  0.667  0.333  0.082-  11 2.47  12 2.47   2 2.47  13 2.47  15 2.47  17 2.47  18 2.47   5 2.47
                             6 2.47  20 2.48  24 2.49  23 2.50
  15  1.000  0.333  0.082-  10 2.47  12 2.47   3 2.47  13 2.47  14 2.47  18 2.47  16 2.47   4 2.47
                             6 2.47  21 2.48  22 2.49  24 2.49
  16  0.333  0.667  0.082-   7 2.47   9 2.47  17 2.47  18 2.47  13 2.47  15 2.47   4 2.47  12 2.47
                            11 2.47  25 2.47  27 2.48  22 2.49
  17  0.667  0.667  0.082-   7 2.47   8 2.47  16 2.47  18 2.47  13 2.47  14 2.47   5 2.47  10 2.47
                            12 2.47  25 2.48  26 2.49  23 2.51
  18  1.000  0.667  0.082-   9 2.47   8 2.47  16 2.47  17 2.47  15 2.47  14 2.47   6 2.47  10 2.47
                            11 2.47  26 2.48  27 2.48  24 2.50
  19  0.225  0.114  0.164-  28 2.39  29 2.40  23 2.44  22 2.45  20 2.46  21 2.47  13 2.48  26 2.48
                            27 2.49  31 2.49  11 2.49  10 2.50
  20  0.556  0.113  0.164-  30 2.40  29 2.40  32 2.44  23 2.45  24 2.45  19 2.46  25 2.48  21 2.48
                            27 2.48  14 2.48  12 2.49  11 2.49
  21  0.890  0.112  0.164-  30 2.39  33 2.40  28 2.40  24 2.47  22 2.47  26 2.47  19 2.47  25 2.47
                            10 2.48  15 2.48  20 2.48  12 2.48
  22  0.225  0.444  0.164-  33 2.38  34 2.39  19 2.45  23 2.45  25 2.47  21 2.47  13 2.47  27 2.48
                            16 2.49  15 2.49  24 2.50  31 2.52
  23  0.555  0.443  0.165-  35 2.40  19 2.44  32 2.45  20 2.45  22 2.45  24 2.46  31 2.47  25 2.48
                            26 2.48  14 2.50  13 2.51  17 2.51
  24  0.888  0.444  0.164-  33 2.40  36 2.41  32 2.44  20 2.45  23 2.46  21 2.47  26 2.47  27 2.48
                            14 2.49  15 2.49  22 2.50  18 2.50
  25  0.556  0.778  0.164-  34 2.39  35 2.40  30 2.40  27 2.46  22 2.47  12 2.47  16 2.47  21 2.47
                            17 2.48  20 2.48  26 2.48  23 2.48
  26  0.891  0.778  0.164-  35 2.38  28 2.41  36 2.41  27 2.46  24 2.47  21 2.47  18 2.48  10 2.48
                            25 2.48  19 2.48  23 2.48  17 2.49
  27  0.223  0.777  0.164-  29 2.38  34 2.40  36 2.42  25 2.46  26 2.46  24 2.48  22 2.48  16 2.48
                            20 2.48  18 2.48  11 2.49  19 2.49
  28  0.002  0.003  0.242-  19 2.39  21 2.40  26 2.41  35 2.44  33 2.44  30 2.46  29 2.46  31 2.47
                            36 2.48
  29  0.331  0.995  0.242-  27 2.38  19 2.40  20 2.40  36 2.44  34 2.45  28 2.46  31 2.48  30 2.49
                            32 2.49
  30  0.670  0.001  0.242-  21 2.39  20 2.40  25 2.40  35 2.43  32 2.45  28 2.46  34 2.48  33 2.48
                            29 2.49
  31  0.337  0.333  0.248-  37 2.07  32 2.46  33 2.47  23 2.47  28 2.47  29 2.48  34 2.48  19 2.49
                            35 2.51  22 2.52
  32  0.668  0.330  0.245-  47 1.82  40 2.03  20 2.44  24 2.44  23 2.45  30 2.45  31 2.46  36 2.48
                            33 2.49  29 2.49  35 2.53
  33  0.006  0.334  0.242-  22 2.38  21 2.40  24 2.40  28 2.44  34 2.45  31 2.47  30 2.48  36 2.49
                            32 2.49
  34  0.335  0.666  0.242-  22 2.39  25 2.39  27 2.40  29 2.45  33 2.45  35 2.47  30 2.48  31 2.48
                            36 2.49
  35  0.673  0.674  0.242-  47 1.85  26 2.38  25 2.40  23 2.40  30 2.43  28 2.44  36 2.45  34 2.47
                            31 2.51  32 2.53
  36  0.999  0.667  0.243-  47 1.94  26 2.41  24 2.41  27 2.42  29 2.44  35 2.45  28 2.48  32 2.48
                            33 2.49  34 2.49
  37  0.433  0.340  0.327-  40 1.40  39 1.52  38 1.52  31 2.07
  38  0.418  0.512  0.356-  41 1.10  43 1.10  42 1.11  37 1.52
  39  0.297  0.128  0.353-  45 1.10  44 1.11  46 1.11  37 1.52
  40  0.638  0.379  0.325-  47 1.39  37 1.40  32 2.03
  41  0.258  0.485  0.356-  38 1.10
  42  0.468  0.518  0.398-  38 1.11
  43  0.522  0.666  0.338-  38 1.10
  44  0.347  0.133  0.395-  39 1.11
  45  0.131  0.084  0.352-  39 1.10
  46  0.313  0.004  0.332-  39 1.11
  47  0.763  0.549  0.292-  40 1.39  32 1.82  35 1.85  36 1.94
 
  LATTYP: Found a hexagonal cell.
 ALAT       =     7.4100015225
 C/A-ratio  =     3.3333326485
  
  Lattice vectors:
  
 A1 = (   7.4100000000,   0.0000000000,   0.0000000000)
 A2 = (  -3.7050000000,   6.4172500001,   0.0000000000)
 A3 = (   0.0000000000,   0.0000000000,  24.7000000000)


Analysis of symmetry for initial positions (statically):
=====================================================================
 Subroutine PRICEL returns:
 Original cell was already a primitive cell.
 

 Routine SETGRP: Setting up the symmetry group for a 
 hexagonal supercell.


 Subroutine GETGRP returns: Found  1 space group operations
 (whereof  1 operations were pure point group operations)
 out of a pool of 24 trial point group operations.


The static configuration has the point symmetry C_1 .


Analysis of symmetry for dynamics (positions and initial velocities):
=====================================================================
 Subroutine PRICEL returns:
 Original cell was already a primitive cell.
 

 Routine SETGRP: Setting up the symmetry group for a 
 hexagonal supercell.


 Subroutine GETGRP returns: Found  1 space group operations
 (whereof  1 operations were pure point group operations)
 out of a pool of 24 trial point group operations.


The dynamic configuration has the point symmetry C_1 .


Analysis of constrained symmetry for selective dynamics:
=====================================================================
 Subroutine PRICEL returns:
 Original cell was already a primitive cell.
 

 Routine SETGRP: Setting up the symmetry group for a 
 hexagonal supercell.


 Subroutine GETGRP returns: Found  1 space group operations
 (whereof  1 operations were pure point group operations)
 out of a pool of 24 trial point group operations.


The constrained configuration has the point symmetry C_1 .


Analysis of magnetic symmetry:
=====================================================================
 Subroutine PRICEL returns:
 Original cell was already a primitive cell.
 

 Subroutine MAGSYM returns: Found  1 space group operations
 (whereof  1 operations were pure point group operations)
 out of a pool of  1 trial space group operations
 (whereof  1 operations were pure point group operations)
 and found also     1 'primitive' translations


The magnetic configuration has the point symmetry C_1 .
 
 
 KPOINTS:  Automatic mesh                         

Automatic generation of k-mesh.
Space group operators:
 irot       det(A)        alpha          n_x          n_y          n_z        tau_x        tau_y        tau_z
    1     1.000000     0.000000     1.000000     0.000000     0.000000     0.000000     0.000000     0.000000
 
 Subroutine IBZKPT returns following result:
 ===========================================
 
 Found      5 irreducible k-points:
 
 Following reciprocal coordinates:
            Coordinates               Weight
  0.000000  0.000000  0.000000      1.000000
  0.333333  0.000000  0.000000      2.000000
  0.000000  0.333333  0.000000      2.000000
  0.333333  0.333333  0.000000      2.000000
 -0.333333  0.333333  0.000000      2.000000
 
 Following cartesian coordinates:
            Coordinates               Weight
  0.000000  0.000000  0.000000      1.000000
  0.111111  0.064150  0.000000      2.000000
  0.000000  0.128300  0.000000      2.000000
  0.111111  0.192450  0.000000      2.000000
 -0.111111  0.064150  0.000000      2.000000
 


--------------------------------------------------------------------------------------------------------




 Dimension of arrays:
   k-points           NKPTS =      5   k-points in BZ     NKDIM =      5   number of bands    NBANDS=    240
   number of dos      NEDOS =    301   number of ions     NIONS =     47
   non local maximal  LDIM  =      6   non local SUM 2l+1 LMDIM =     18
   total plane-waves  NPLWV = 163296
   max r-space proj   IRMAX =   1582   max aug-charges    IRDMAX=   5682
   dimension x,y,z NGX =    36 NGY =   36 NGZ =  126
   dimension x,y,z NGXF=    72 NGYF=   72 NGZF=  252
   support grid    NGXF=    72 NGYF=   72 NGZF=  252
   ions per type =              36   3   1   7
 NGX,Y,Z   is equivalent  to a cutoff of   8.08,  8.08,  8.48 a.u.
 NGXF,Y,Z  is equivalent  to a cutoff of  16.15, 16.15, 16.96 a.u.


 I would recommend the setting:
   dimension x,y,z NGX =    36 NGY =   36 NGZ =  121
 SYSTEM =  unknown system                          
 POSCAR =  Co C O H                                

 Startparameter for this run:
   NWRITE =      2    write-flag & timer
   PREC   = normal    normal or accurate (medium, high low for compatibility)
   ISTART =      0    job   : 0-new  1-cont  2-samecut
   ICHARG =      2    charge: 1-file 2-atom 10-const
   ISPIN  =      2    spin polarized calculation?
   LNONCOLLINEAR =      F non collinear calculations
   LSORBIT =      F    spin-orbit coupling
   INIWAV =      1    electr: 0-lowe 1-rand  2-diag
   LASPH  =      F    aspherical Exc in radial PAW
   METAGGA=      F    non-selfconsistent MetaGGA calc.
   LSOL =      F    Solvation

 Electronic Relaxation 1
   ENCUT  =  400.0 eV  29.40 Ry    5.42 a.u.  12.08 12.08 40.28*2*pi/ulx,y,z
   ENINI  =  400.0     initial cutoff
   ENAUG  =  644.9 eV  augmentation charge cutoff
   NELM   =     60;   NELMIN=  2; NELMDL= -5     # of ELM steps 
   EDIFF  = 0.1E-05   stopping-criterion for ELM
   LREAL  =      T    real-space projection
   NLSPLINE    = F    spline interpolate recip. space projectors
   LCOMPAT=      F    compatible to vasp.4.4
   GGA_COMPAT  = T    GGA compatible to vasp.4.4-vasp.4.6
   LMAXPAW     = -100 max onsite density
   LMAXMIX     =    2 max onsite mixed and CHGCAR
   VOSKOWN=      0    Vosko Wilk Nusair interpolation
   ROPT   =   -0.00050  -0.00050  -0.00050  -0.00050
 Ionic relaxation
   EDIFFG = -.1E-01   stopping-criterion for IOM
   NSW    =    500    number of steps for IOM
   NBLOCK =      1;   KBLOCK =    500    inner block; outer block 
   IBRION =      3    ionic relax: 0-MD 1-quasi-New 2-CG
   NFREE  =      0    steps in history (QN), initial steepest desc. (CG)
   ISIF   =      2    stress and relaxation
   IWAVPR =     11    prediction:  0-non 1-charg 2-wave 3-comb
   ISYM   =      2    0-nonsym 1-usesym 2-fastsym
   LCORR  =      T    Harris-Foulkes like correction to forces

   POTIM  = 0.0000    time-step for ionic-motion
   TEIN   =    0.0    initial temperature
   TEBEG  =    0.0;   TEEND  =   0.0 temperature during run
   SMASS  =  -3.00    Nose mass-parameter (am)
   estimated Nose-frequenzy (Omega)   =  0.10E-29 period in steps =  0.00 mass=  -0.125E-26a.u.
   SCALEE = 1.0000    scale energy and forces
   NPACO  =    256;   APACO  = 16.0  distance and # of slots for P.C.
   PSTRESS=    0.0 pullay stress

  Mass of Ions in am
   POMASS =  58.93 12.01 16.00  1.00
  Ionic Valenz
   ZVAL   =   9.00  4.00  6.00  1.00
  Atomic Wigner-Seitz radii
   RWIGS  =  -1.00 -1.00 -1.00 -1.00
  virtual crystal weights 
   VCA    =   1.00  1.00  1.00  1.00
   NELECT =     349.0000    total number of electrons
   NUPDOWN=      -1.0000    fix difference up-down

 DOS related values:
   EMIN   =  10.00;   EMAX   =-10.00  energy-range for DOS
   EFERMI =   0.00
   ISMEAR =     2;   SIGMA  =   0.20  broadening in eV -4-tet -1-fermi 0-gaus

 Electronic relaxation 2 (details)
   IALGO  =     38    algorithm
   LDIAG  =      T    sub-space diagonalisation (order eigenvalues)
   LSUBROT=      F    optimize rotation matrix (better conditioning)
   TURBO    =      0    0=normal 1=particle mesh
   IRESTART =      0    0=no restart 2=restart with 2 vectors
   NREBOOT  =      0    no. of reboots
   NMIN     =      0    reboot dimension
   EREF     =   0.00    reference energy to select bands
   IMIX   =      4    mixing-type and parameters
     AMIX     =   0.40;   BMIX     =  1.00
     AMIX_MAG =   1.60;   BMIX_MAG =  1.00
     AMIN     =   0.10
     WC   =   100.;   INIMIX=   1;  MIXPRE=   1;  MAXMIX= -45

 Intra band minimization:
   WEIMIN = 0.0010     energy-eigenvalue tresh-hold
   EBREAK =  0.10E-08  absolut break condition
   DEPER  =   0.30     relativ break condition  

   TIME   =   0.40     timestep for ELM

  volume/ion in A,a.u.               =      24.99       168.64
  Fermi-wavevector in a.u.,A,eV,Ry     =   1.092434  2.064401 16.237361  1.193412
  Thomas-Fermi vector in A             =   2.228700
 
 Write flags
   LWAVE  =      F    write WAVECAR
   LCHARG =      F    write CHGCAR
   LVTOT  =      F    write LOCPOT, total local potential
   LVHAR  =      F    write LOCPOT, Hartree potential only
   LELF   =      F    write electronic localiz. function (ELF)
   LORBIT =      0    0 simple, 1 ext, 2 COOP (PROOUT)


 Dipole corrections
   LMONO  =      F    monopole corrections only (constant potential shift)
   LDIPOL =      F    correct potential (dipole corrections)
   IDIPOL =      3    1-x, 2-y, 3-z, 4-all directions 
   EPSILON=  1.0000000 bulk dielectric constant

 Exchange correlation treatment:
   GGA     =    PE    GGA type
   LEXCH   =     8    internal setting for exchange type
   VOSKOWN=      0    Vosko Wilk Nusair interpolation
   LHFCALC =     F    Hartree Fock is set to
   LHFONE  =     F    Hartree Fock one center treatment
   AEXX    =    0.0000 exact exchange contribution

 Linear response parameters
   LEPSILON=     F    determine dielectric tensor
   LRPA    =     F    only Hartree local field effects (RPA)
   LNABLA  =     F    use nabla operator in PAW spheres
   LVEL    =     F    velocity operator in full k-point grid
   LINTERFAST=   F  fast interpolation
   KINTER  =     0    interpolate to denser k-point grid
   CSHIFT  =0.1000    complex shift for real part using Kramers Kronig
   OMEGAMAX=  -1.0    maximum frequency
   DEG_THRESHOLD= 0.2000000E-02 threshold for treating states as degnerate
   RTIME   =    0.100 relaxation time in fs

 Orbital magnetization related:
   ORBITALMAG=     F  switch on orbital magnetization
   LCHIMAG   =     F  perturbation theory with respect to B field
   DQ        =  0.001000  dq finite difference perturbation B field



--------------------------------------------------------------------------------------------------------


 quickmin algorithm: (dynamic with friction)
   using selective dynamics as specified on POSCAR
 charge density and potential will be updated during run
 spin polarized calculation
 Variant of blocked Davidson
 Davidson routine will perform the subspace rotation
 perform sub-space diagonalisation
    after iterative eigenvector-optimisation
 modified Broyden-mixing scheme, WC =      100.0
 initial mixing is a Kerker type mixing with AMIX =  0.4000 and BMIX =      1.0000
 Hartree-type preconditioning will be used
 using additional bands           65
 real space projection scheme for non local part
 use partial core corrections
 calculate Harris-corrections to forces 
   (improved forces if not selfconsistent)
 use gradient corrections 
 use of overlap-Matrix (Vanderbilt PP)
 Methfessel and Paxton  Order N= 2 SIGMA  =   0.20


--------------------------------------------------------------------------------------------------------


  energy-cutoff  :      400.00
  volume of cell :     1174.53
      direct lattice vectors                 reciprocal lattice vectors
     7.410000000  0.000000000  0.000000000     0.134952767  0.077914995  0.000000000
    -3.705000000  6.417250000  0.000000000     0.000000000  0.155829989  0.000000000
     0.000000000  0.000000000 24.700000000     0.000000000  0.000000000  0.040485830

  length of vectors
     7.410000000  7.410001522 24.700000000     0.155830021  0.155829989  0.040485830


 
 k-points in units of 2pi/SCALE and weight:  Automatic mesh                         
   0.00000000  0.00000000  0.00000000       0.111
   0.11111111  0.06415001  0.00000000       0.222
   0.00000000  0.12830002  0.00000000       0.222
   0.11111111  0.19245004  0.00000000       0.222
  -0.11111111  0.06415001  0.00000000       0.222
 
 k-points in reciprocal lattice and weights:  Automatic mesh                         
   0.00000000  0.00000000  0.00000000       0.111
   0.33333333  0.00000000  0.00000000       0.222
   0.00000000  0.33333333  0.00000000       0.222
   0.33333333  0.33333333  0.00000000       0.222
  -0.33333333  0.33333333  0.00000000       0.222
 
 position of ions in fractional coordinates (direct lattice) 
   0.22222237  0.11111141  0.00000000
   0.55555571  0.11111141  0.00000000
   0.88888904  0.11111141  0.00000000
   0.22222206  0.44444412  0.00000000
   0.55555539  0.44444412  0.00000000
   0.88888872  0.44444412  0.00000000
   0.55555431  0.77777528  0.00000000
   0.88888764  0.77777528  0.00000000
   0.22222097  0.77777528  0.00000000
   0.00000000  0.00000000  0.08164980
   0.33333333  0.00000000  0.08164980
   0.66666667  0.00000000  0.08164980
   0.33333302  0.33333270  0.08164980
   0.66666635  0.33333270  0.08164980
   0.99999968  0.33333270  0.08164980
   0.33333309  0.66666617  0.08164980
   0.66666642  0.66666617  0.08164980
   0.99999975  0.66666617  0.08164980
   0.22486098  0.11379207  0.16433567
   0.55643445  0.11282410  0.16419645
   0.89020427  0.11174784  0.16373440
   0.22470650  0.44392720  0.16396508
   0.55529252  0.44311622  0.16517052
   0.88778225  0.44366244  0.16447164
   0.55569314  0.77832047  0.16350760
   0.89050972  0.77831975  0.16384239
   0.22257407  0.77722138  0.16396850
   0.00209555  0.00271722  0.24201742
   0.33057760  0.99466639  0.24186934
   0.66963782  0.00066310  0.24157713
   0.33741823  0.33266011  0.24754721
   0.66761414  0.33017012  0.24518799
   0.00557268  0.33416314  0.24170447
   0.33534042  0.66636924  0.24168288
   0.67284863  0.67404388  0.24173077
   0.99937710  0.66717065  0.24297193
   0.43252703  0.33996112  0.32656529
   0.41796436  0.51245874  0.35601921
   0.29666277  0.12807290  0.35253869
   0.63758261  0.37918372  0.32453146
   0.25782707  0.48486917  0.35585068
   0.46826450  0.51802943  0.39849189
   0.52160079  0.66626383  0.33768925
   0.34691527  0.13334175  0.39499680
   0.13126653  0.08376741  0.35222292
   0.31320795  0.00362445  0.33219817
   0.76268479  0.54924306  0.29158579
 
 position of ions in cartesian coordinates  (Angst):
   1.23500000  0.71302972  0.00000000
   3.70500000  0.71302972  0.00000000
   6.17500000  0.71302972  0.00000000
  -0.00000000  2.85210900  0.00000000
   2.47000000  2.85210900  0.00000000
   4.94000000  2.85210900  0.00000000
   1.23500000  4.99117840  0.00000000
   3.70500000  4.99117840  0.00000000
  -1.23500000  4.99117840  0.00000000
   0.00000000  0.00000000  2.01675006
   2.47000000  0.00000000  2.01675006
   4.94000000  0.00000000  2.01675006
   1.23500000  2.13907928  2.01675006
   3.70500000  2.13907928  2.01675006
   6.17500000  2.13907928  2.01675006
   0.00000000  4.27816350  2.01675006
   2.47000000  4.27816350  2.01675006
   4.94000000  4.27816350  2.01675006
   1.24462026  0.73023214  4.05909097
   3.70516601  0.72402044  4.05565241
   6.18238788  0.71711381  4.04423969
   0.02032493  2.84879180  4.04993752
   2.47297200  2.84358755  4.07971194
   4.93469708  2.84709282  4.06244955
   1.23400884  4.99467701  4.03863784
   3.71500231  4.99467244  4.04690696
  -1.23033140  4.98762393  4.05002194
   0.00546073  0.01743711  5.97783027
  -1.23565892  6.38302286  5.97417267
   4.95955944  0.00425526  5.96695499
   1.26776340  2.13476306  6.11441607
   3.72374045  2.11878422  6.05614342
  -1.19678091  2.14440844  5.97010035
   0.01597449  4.27625799  5.96956719
   2.48847575  4.32550810  5.97074994
   4.93351705  4.28140083  6.00140656
   1.94546932  2.18161552  8.06616254
   1.19845629  3.28857583  8.79367445
   1.72376102  0.82187581  8.70770563
   3.31961145  2.43331671  8.01592694
   0.11405832  3.11152668  8.78951191
   1.55054091  3.32432438  9.84274967
   1.39655435  4.27558157  8.34092444
   2.07661099  0.85568732  9.75642085
   0.66232672  0.53755641  8.69990604
   2.30744235  0.02325898  8.20529486
   3.61654874  3.52463001  7.20216898
 


--------------------------------------------------------------------------------------------------------


 k-point  1 :   0.0000 0.0000 0.0000  plane waves:   21237
 k-point  2 :   0.3333 0.0000 0.0000  plane waves:   21309
 k-point  3 :   0.0000 0.3333 0.0000  plane waves:   21309
 k-point  4 :   0.3333 0.3333 0.0000  plane waves:   21354
 k-point  5 :  -0.3333 0.3333 0.0000  plane waves:   21309

 maximum and minimum number of plane-waves per node :     21354    21237

 maximum number of plane-waves:     21354
 maximum index in each direction: 
   IXMAX=   12   IYMAX=   12   IZMAX=   40
   IXMIN=  -12   IYMIN=  -12   IZMIN=  -40

 WARNING: aliasing errors must be expected set NGX to  50 to avoid them
 WARNING: aliasing errors must be expected set NGY to  50 to avoid them
 WARNING: aliasing errors must be expected set NGZ to 162 to avoid them
 aliasing errors are usually negligible using standard VASP settings
 and one can safely disregard these warnings

 serial   3D FFT for wavefunctions
 parallel 3D FFT for charge:
    minimum data exchange during FFTs selected (reduces bandwidth)


 total amount of memory used by VASP on root node   182247. kBytes
========================================================================

   base      :      30000. kBytes
   nonlr-proj:       9714. kBytes
   fftplans  :       6203. kBytes
   grid      :      28885. kBytes
   one-center:       1461. kBytes
   wavefun   :     105984. kBytes
 
     INWAV:  cpu time    0.00: real time    0.00
 Broyden mixing: mesh for mixing (old mesh)
   NGX = 25   NGY = 25   NGZ = 81
  (NGX  = 72   NGY  = 72   NGZ  =252)
  gives a total of  50625 points

 initial charge density was supplied:
 charge density of overlapping atoms calculated
 number of electron     349.0000000 magnetization      58.6800000
 keeping initial charge density in first step


--------------------------------------------------------------------------------------------------------


 Maximum index for non-local projection operator         1482
 Maximum index for augmentation-charges          722 (set IRDMAX)


--------------------------------------------------------------------------------------------------------


 First call to EWALD:  gamma=   0.168
 Maximum number of real-space cells 4x 4x 1
 Maximum number of reciprocal cells 2x 2x 6

 FEWALD executed in parallel
    FEWALD:  cpu time    0.00: real time    0.00


----------------------------------------- Iteration    1(   1)  ---------------------------------------


    POTLOK:  cpu time    0.48: real time    0.48
    SETDIJ:  cpu time    0.08: real time    0.08
     EDDAV:  cpu time   33.27: real time   33.32
       DOS:  cpu time    0.00: real time    0.00
    --------------------------------------------
      LOOP:  cpu time   33.84: real time   33.88

 eigenvalue-minimisations  :  4800
 total energy-change (2. order) : 0.2655648E+04  (-0.1284445E+05)
 number of electron     349.0000000 magnetization      58.6800000
 augmentation part      349.0000000 magnetization      58.6800000

 Free energy of the ion-electron system (eV)
  ---------------------------------------------------
  alpha Z        PSCENC =       533.70227597
  Ewald energy   TEWEN  =    169076.74594054
  -Hartree energ DENC   =   -198185.88233808
  -exchange      EXHF   =         0.00000000
  -V(xc)+E(xc)   XCENC  =       690.87006182
  PAW double counting   =     26632.70730083   -28544.49199737
  entropy T*S    EENTRO =         0.00699384
  eigenvalues    EBANDS =      2210.11627706
  atomic energy  EATOM  =     30241.87372392
  Solvation contrib.  Ediel  =         0.00000000
  ---------------------------------------------------
  free energy    TOTEN  =      2655.64823852 eV

  energy without entropy =     2655.64124469  energy(sigma->0) =     2655.64649006


--------------------------------------------------------------------------------------------------------




----------------------------------------- Iteration    1(   2)  ---------------------------------------


     EDDAV:  cpu time   33.77: real time   33.77
       DOS:  cpu time    0.00: real time    0.00
    --------------------------------------------
      LOOP:  cpu time   33.77: real time   33.78

 eigenvalue-minimisations  :  4800
 total energy-change (2. order) :-0.2668861E+04  (-0.2499088E+04)
 number of electron     349.0000000 magnetization      58.6800000
 augmentation part      349.0000000 magnetization      58.6800000

 Free energy of the ion-electron system (eV)
  ---------------------------------------------------
  alpha Z        PSCENC =       533.70227597
  Ewald energy   TEWEN  =    169076.74594054
  -Hartree energ DENC   =   -198185.88233808
  -exchange      EXHF   =         0.00000000
  -V(xc)+E(xc)   XCENC  =       690.87006182
  PAW double counting   =     26632.70730083   -28544.49199737
  entropy T*S    EENTRO =        -0.00356983
  eigenvalues    EBANDS =      -458.73413556
  atomic energy  EATOM  =     30241.87372392
  Solvation contrib.  Ediel  =         0.00000000
  ---------------------------------------------------
  free energy    TOTEN  =       -13.21273776 eV

  energy without entropy =      -13.20916793  energy(sigma->0) =      -13.21184531


--------------------------------------------------------------------------------------------------------




----------------------------------------- Iteration    1(   3)  ---------------------------------------


     EDDAV:  cpu time   40.06: real time   40.07
       DOS:  cpu time    0.00: real time    0.00
    --------------------------------------------
      LOOP:  cpu time   40.06: real time   40.07

 eigenvalue-minimisations  :  5976
 total energy-change (2. order) :-0.3026410E+03  (-0.2637079E+03)
 number of electron     349.0000000 magnetization      58.6800000
 augmentation part      349.0000000 magnetization      58.6800000

 Free energy of the ion-electron system (eV)
  ---------------------------------------------------
  alpha Z        PSCENC =       533.70227597
  Ewald energy   TEWEN  =    169076.74594054
  -Hartree energ DENC   =   -198185.88233808
  -exchange      EXHF   =         0.00000000
  -V(xc)+E(xc)   XCENC  =       690.87006182
  PAW double counting   =     26632.70730083   -28544.49199737
  entropy T*S    EENTRO =         0.11923252
  eigenvalues    EBANDS =      -761.49793603
  atomic energy  EATOM  =     30241.87372392
  Solvation contrib.  Ediel  =         0.00000000
  ---------------------------------------------------
  free energy    TOTEN  =      -315.85373588 eV

  energy without entropy =     -315.97296840  energy(sigma->0) =     -315.88354401


--------------------------------------------------------------------------------------------------------




----------------------------------------- Iteration    1(   4)  ---------------------------------------


     EDDAV:  cpu time   39.50: real time   39.50
       DOS:  cpu time    0.00: real time    0.00
    --------------------------------------------
      LOOP:  cpu time   39.50: real time   39.51

 eigenvalue-minimisations  :  5904
 total energy-change (2. order) :-0.2633789E+02  (-0.2548141E+02)
 number of electron     349.0000000 magnetization      58.6800000
 augmentation part      349.0000000 magnetization      58.6800000

 Free energy of the ion-electron system (eV)
  ---------------------------------------------------
  alpha Z        PSCENC =       533.70227597
  Ewald energy   TEWEN  =    169076.74594054
  -Hartree energ DENC   =   -198185.88233808
  -exchange      EXHF   =         0.00000000
  -V(xc)+E(xc)   XCENC  =       690.87006182
  PAW double counting   =     26632.70730083   -28544.49199737
  entropy T*S    EENTRO =         0.09939860
  eigenvalues    EBANDS =      -787.81598949
  atomic energy  EATOM  =     30241.87372392
  Solvation contrib.  Ediel  =         0.00000000
  ---------------------------------------------------
  free energy    TOTEN  =      -342.19162326 eV

  energy without entropy =     -342.29102186  energy(sigma->0) =     -342.21647291


--------------------------------------------------------------------------------------------------------




----------------------------------------- Iteration    1(   5)  ---------------------------------------


     EDDAV:  cpu time   40.22: real time   40.22
       DOS:  cpu time    0.00: real time    0.00
    CHARGE:  cpu time    1.59: real time    1.59
    MIXING:  cpu time    0.01: real time    0.01
    --------------------------------------------
      LOOP:  cpu time   41.82: real time   41.83

 eigenvalue-minimisations  :  6016
 total energy-change (2. order) :-0.8649978E+00  (-0.8618959E+00)
 number of electron     348.9998775 magnetization      58.2645125
 augmentation part      165.9786479 magnetization      46.3778006

 Broyden mixing:
  rms(total) = 0.65077E+01    rms(broyden)= 0.65074E+01
  rms(prec ) = 0.67740E+01
  weight for this iteration     100.00

 Free energy of the ion-electron system (eV)
  ---------------------------------------------------
  alpha Z        PSCENC =       533.70227597
  Ewald energy   TEWEN  =    169076.74594054
  -Hartree energ DENC   =   -198185.88233808
  -exchange      EXHF   =         0.00000000
  -V(xc)+E(xc)   XCENC  =       690.87006182
  PAW double counting   =     26632.70730083   -28544.49199737
  entropy T*S    EENTRO =         0.09756629
  eigenvalues    EBANDS =      -788.67915497
  atomic energy  EATOM  =     30241.87372392
  Solvation contrib.  Ediel  =         0.00000000
  ---------------------------------------------------
  free energy    TOTEN  =      -343.05662105 eV

  energy without entropy =     -343.15418733  energy(sigma->0) =     -343.08101262


--------------------------------------------------------------------------------------------------------




----------------------------------------- Iteration    1(   6)  ---------------------------------------


    POTLOK:  cpu time    0.39: real time    0.39
    SETDIJ:  cpu time    0.06: real time    0.06
     EDDAV:  cpu time   39.76: real time   39.76
       DOS:  cpu time    0.00: real time    0.00
    CHARGE:  cpu time    1.51: real time    1.51
    MIXING:  cpu time    0.01: real time    0.01
    --------------------------------------------
      LOOP:  cpu time   41.72: real time   41.73

 eigenvalue-minimisations  :  5920
 total energy-change (2. order) :-0.6160581E+02  (-0.3854208E+02)
 number of electron     348.9998213 magnetization      57.7034411
 augmentation part      191.3958512 magnetization      51.5743328

 Broyden mixing:
  rms(total) = 0.12638E+02    rms(broyden)= 0.12637E+02
  rms(prec ) = 0.14020E+02
  weight for this iteration     100.00

 eigenvalues of (default mixing * dielectric matrix)
  average eigenvalue GAMMA=   0.2397
  0.2397

 Free energy of the ion-electron system (eV)
  ---------------------------------------------------
  alpha Z        PSCENC =       533.70227597
  Ewald energy   TEWEN  =    169076.74594054
  -Hartree energ DENC   =   -197723.34816368
  -exchange      EXHF   =         0.00000000
  -V(xc)+E(xc)   XCENC  =       664.72292472
  PAW double counting   =     29390.63274590   -31108.73653470
  entropy T*S    EENTRO =         0.00744825
  eigenvalues    EBANDS =     -1480.26279206
  atomic energy  EATOM  =     30241.87372392
  Solvation contrib.  Ediel  =         0.00000000
  ---------------------------------------------------
  free energy    TOTEN  =      -404.66243114 eV

  energy without entropy =     -404.66987939  energy(sigma->0) =     -404.66429320


--------------------------------------------------------------------------------------------------------




----------------------------------------- Iteration    1(   7)  ---------------------------------------


    POTLOK:  cpu time    0.38: real time    0.38
    SETDIJ:  cpu time    0.06: real time    0.06
     EDDAV:  cpu time   39.38: real time   39.38
       DOS:  cpu time    0.00: real time    0.00
    CHARGE:  cpu time    1.32: real time    1.32
    MIXING:  cpu time    0.01: real time    0.01
    --------------------------------------------
      LOOP:  cpu time   41.14: real time   41.15

 eigenvalue-minimisations  :  5328
 total energy-change (2. order) : 0.4031005E+02  (-0.2475963E+02)
 number of electron     348.9998748 magnetization      56.7865931
 augmentation part      195.2746502 magnetization      47.9984380

 Broyden mixing:
  rms(total) = 0.10055E+02    rms(broyden)= 0.10054E+02
  rms(prec ) = 0.11862E+02
  weight for this iteration     100.00

 eigenvalues of (default mixing * dielectric matrix)
  average eigenvalue GAMMA=   0.3234
  0.5119  0.1350

 Free energy of the ion-electron system (eV)
  ---------------------------------------------------
  alpha Z        PSCENC =       533.70227597
  Ewald energy   TEWEN  =    169076.74594054
  -Hartree energ DENC   =   -197508.32655680
  -exchange      EXHF   =         0.00000000
  -V(xc)+E(xc)   XCENC  =       663.92925335
  PAW double counting   =     29977.35663868   -31730.07862801
  entropy T*S    EENTRO =        -0.00759196
  eigenvalues    EBANDS =     -1619.54743253
  atomic energy  EATOM  =     30241.87372392
  Solvation contrib.  Ediel  =         0.00000000
  ---------------------------------------------------
  free energy    TOTEN  =      -364.35237682 eV

  energy without entropy =     -364.34478487  energy(sigma->0) =     -364.35047883


--------------------------------------------------------------------------------------------------------




----------------------------------------- Iteration    1(   8)  ---------------------------------------


    POTLOK:  cpu time    0.36: real time    0.36
    SETDIJ:  cpu time    0.06: real time    0.06
     EDDAV:  cpu time   45.94: real time   45.94
       DOS:  cpu time    0.00: real time    0.00
    CHARGE:  cpu time    1.49: real time    1.49
    MIXING:  cpu time    0.01: real time    0.01
    --------------------------------------------
      LOOP:  cpu time   47.85: real time   47.86

 eigenvalue-minimisations  :  6560
 total energy-change (2. order) :-0.2780025E+02  (-0.1162357E+02)
 number of electron     348.9998364 magnetization      56.4311754
 augmentation part      188.6902564 magnetization      49.1823204

 Broyden mixing:
  rms(total) = 0.11299E+02    rms(broyden)= 0.11299E+02
  rms(prec ) = 0.15544E+02
  weight for this iteration     100.00

 eigenvalues of (default mixing * dielectric matrix)
  average eigenvalue GAMMA=   0.2585
  0.4921  0.1763  0.1071

 Free energy of the ion-electron system (eV)
  ---------------------------------------------------
  alpha Z        PSCENC =       533.70227597
  Ewald energy   TEWEN  =    169076.74594054
  -Hartree energ DENC   =   -197957.78563646
  -exchange      EXHF   =         0.00000000
  -V(xc)+E(xc)   XCENC  =       666.02832753
  PAW double counting   =     31188.86419251   -33022.13680635
  entropy T*S    EENTRO =        -0.01695148
  eigenvalues    EBANDS =     -1119.42769636
  atomic energy  EATOM  =     30241.87372392
  Solvation contrib.  Ediel  =         0.00000000
  ---------------------------------------------------
  free energy    TOTEN  =      -392.15263016 eV

  energy without entropy =     -392.13567869  energy(sigma->0) =     -392.14839229


--------------------------------------------------------------------------------------------------------




----------------------------------------- Iteration    1(   9)  ---------------------------------------


    POTLOK:  cpu time    0.40: real time    0.40
    SETDIJ:  cpu time    0.06: real time    0.06
     EDDAV:  cpu time   53.06: real time   53.06
       DOS:  cpu time    0.00: real time    0.00
    CHARGE:  cpu time    1.48: real time    1.47
    MIXING:  cpu time    0.01: real time    0.01
    --------------------------------------------
      LOOP:  cpu time   55.00: real time   55.01

 eigenvalue-minimisations  :  7792
 total energy-change (2. order) : 0.6570086E+02  (-0.7589989E+01)
 number of electron     348.9998374 magnetization      55.7629318
 augmentation part      187.1993306 magnetization      47.6086909

 Broyden mixing:
  rms(total) = 0.82645E+01    rms(broyden)= 0.82641E+01
  rms(prec ) = 0.10094E+02
  weight for this iteration     100.00

 eigenvalues of (default mixing * dielectric matrix)
  average eigenvalue GAMMA=   0.3070
  0.5236  0.5236  0.1082  0.0725

 Free energy of the ion-electron system (eV)
  ---------------------------------------------------
  alpha Z        PSCENC =       533.70227597
  Ewald energy   TEWEN  =    169076.74594054
  -Hartree energ DENC   =   -197999.84957898
  -exchange      EXHF   =         0.00000000
  -V(xc)+E(xc)   XCENC  =       666.19164674
  PAW double counting   =     31440.61666250   -33287.90606185
  entropy T*S    EENTRO =        -0.07555182
  eigenvalues    EBANDS =      -997.75082443
  atomic energy  EATOM  =     30241.87372392
  Solvation contrib.  Ediel  =         0.00000000
  ---------------------------------------------------
  free energy    TOTEN  =      -326.45176740 eV

  energy without entropy =     -326.37621559  energy(sigma->0) =     -326.43287945


--------------------------------------------------------------------------------------------------------




----------------------------------------- Iteration    1(  10)  ---------------------------------------


    POTLOK:  cpu time    0.40: real time    0.40
    SETDIJ:  cpu time    0.06: real time    0.06
     EDDAV:  cpu time   39.86: real time   39.86
       DOS:  cpu time    0.00: real time    0.00
    CHARGE:  cpu time    1.44: real time    1.44
    MIXING:  cpu time    0.01: real time    0.01
    --------------------------------------------
      LOOP:  cpu time   41.77: real time   41.77

 eigenvalue-minimisations  :  5512
 total energy-change (2. order) :-0.2686664E+02  (-0.8647258E+01)
 number of electron     348.9998552 magnetization      54.3952816
 augmentation part      188.2352806 magnetization      46.5445321

 Broyden mixing:
  rms(total) = 0.10433E+02    rms(broyden)= 0.10433E+02
  rms(prec ) = 0.11837E+02
  weight for this iteration     100.00

 eigenvalues of (default mixing * dielectric matrix)
  average eigenvalue GAMMA=   0.3460
  0.7264  0.7264  0.1062  0.1062  0.0646

 Free energy of the ion-electron system (eV)
  ---------------------------------------------------
  alpha Z        PSCENC =       533.70227597
  Ewald energy   TEWEN  =    169076.74594054
  -Hartree energ DENC   =   -197956.91607314
  -exchange      EXHF   =         0.00000000
  -V(xc)+E(xc)   XCENC  =       667.41919148
  PAW double counting   =     31785.18121212   -33646.29860622
  entropy T*S    EENTRO =        -0.05399849
  eigenvalues    EBANDS =     -1054.97206880
  atomic energy  EATOM  =     30241.87372392
  Solvation contrib.  Ediel  =         0.00000000
  ---------------------------------------------------
  free energy    TOTEN  =      -353.31840262 eV

  energy without entropy =     -353.26440414  energy(sigma->0) =     -353.30490300


--------------------------------------------------------------------------------------------------------




----------------------------------------- Iteration    1(  11)  ---------------------------------------


    POTLOK:  cpu time    0.40: real time    0.40
    SETDIJ:  cpu time    0.06: real time    0.06
     EDDAV:  cpu time   37.74: real time   37.74
       DOS:  cpu time    0.00: real time    0.00
    CHARGE:  cpu time    1.50: real time    1.50
    MIXING:  cpu time    0.01: real time    0.01
    --------------------------------------------
      LOOP:  cpu time   39.71: real time   39.71

 eigenvalue-minimisations  :  5736
 total energy-change (2. order) : 0.5504964E+02  (-0.5525466E+01)
 number of electron     348.9998732 magnetization      54.0000684
 augmentation part      187.5259026 magnetization      40.7488481

 Broyden mixing:
  rms(total) = 0.56458E+01    rms(broyden)= 0.56455E+01
  rms(prec ) = 0.64904E+01
  weight for this iteration     100.00

 eigenvalues of (default mixing * dielectric matrix)
  average eigenvalue GAMMA=   0.3383
  0.7194  0.7194  0.2972  0.1150  0.1150  0.0637

 Free energy of the ion-electron system (eV)
  ---------------------------------------------------
  alpha Z        PSCENC =       533.70227597
  Ewald energy   TEWEN  =    169076.74594054
  -Hartree energ DENC   =   -197918.24456634
  -exchange      EXHF   =         0.00000000
  -V(xc)+E(xc)   XCENC  =       671.29000915
  PAW double counting   =     32474.11711651   -34364.96317822
  entropy T*S    EENTRO =        -0.02380161
  eigenvalues    EBANDS =     -1012.76628602
  atomic energy  EATOM  =     30241.87372392
  Solvation contrib.  Ediel  =         0.00000000
  ---------------------------------------------------
  free energy    TOTEN  =      -298.26876611 eV

  energy without entropy =     -298.24496450  energy(sigma->0) =     -298.26281570


--------------------------------------------------------------------------------------------------------




----------------------------------------- Iteration    1(  12)  ---------------------------------------


    POTLOK:  cpu time    0.40: real time    0.40
    SETDIJ:  cpu time    0.06: real time    0.06
     EDDAV:  cpu time   34.88: real time   34.88
       DOS:  cpu time    0.00: real time    0.00
    CHARGE:  cpu time    1.45: real time    1.45
    MIXING:  cpu time    0.01: real time    0.01
    --------------------------------------------
      LOOP:  cpu time   36.80: real time   36.80

 eigenvalue-minimisations  :  5248
 total energy-change (2. order) : 0.1552459E+01  (-0.3124607E+01)
 number of electron     348.9998640 magnetization      53.5291966
 augmentation part      185.5867549 magnetization      43.5413341

 Broyden mixing:
  rms(total) = 0.53227E+01    rms(broyden)= 0.53225E+01
  rms(prec ) = 0.58338E+01
  weight for this iteration     100.00

 eigenvalues of (default mixing * dielectric matrix)
  average eigenvalue GAMMA=   0.3584
  1.1391  0.4639  0.4639  0.1584  0.1101  0.1101  0.0631

 Free energy of the ion-electron system (eV)
  ---------------------------------------------------
  alpha Z        PSCENC =       533.70227597
  Ewald energy   TEWEN  =    169076.74594054
  -Hartree energ DENC   =   -197992.58110939
  -exchange      EXHF   =         0.00000000
  -V(xc)+E(xc)   XCENC  =       672.21202759
  PAW double counting   =     32845.85365639   -34747.48241699
  entropy T*S    EENTRO =        -0.03741310
  eigenvalues    EBANDS =      -927.00299250
  atomic energy  EATOM  =     30241.87372392
  Solvation contrib.  Ediel  =         0.00000000
  ---------------------------------------------------
  free energy    TOTEN  =      -296.71630756 eV

  energy without entropy =     -296.67889446  energy(sigma->0) =     -296.70695428


--------------------------------------------------------------------------------------------------------




----------------------------------------- Iteration    1(  13)  ---------------------------------------


    POTLOK:  cpu time    0.40: real time    0.40
    SETDIJ:  cpu time    0.06: real time    0.06
     EDDAV:  cpu time   34.81: real time   34.81
       DOS:  cpu time    0.00: real time    0.00
    CHARGE:  cpu time    1.46: real time    1.46
    MIXING:  cpu time    0.02: real time    0.01
    --------------------------------------------
      LOOP:  cpu time   36.74: real time   36.74

 eigenvalue-minimisations  :  5208
 total energy-change (2. order) : 0.4805873E+01  (-0.1878488E+01)
 number of electron     348.9998552 magnetization      53.4378781
 augmentation part      185.0898872 magnetization      42.6015377

 Broyden mixing:
  rms(total) = 0.37172E+01    rms(broyden)= 0.37169E+01
  rms(prec ) = 0.40569E+01
  weight for this iteration     100.00

 eigenvalues of (default mixing * dielectric matrix)
  average eigenvalue GAMMA=   0.3334
  1.1793  0.4460  0.4460  0.2181  0.1088  0.1088  0.0629  0.0972

 Free energy of the ion-electron system (eV)
  ---------------------------------------------------
  alpha Z        PSCENC =       533.70227597
  Ewald energy   TEWEN  =    169076.74594054
  -Hartree energ DENC   =   -198053.48953597
  -exchange      EXHF   =         0.00000000
  -V(xc)+E(xc)   XCENC  =       672.29872684
  PAW double counting   =     33179.39706576   -35087.19966405
  entropy T*S    EENTRO =        -0.02220800
  eigenvalues    EBANDS =      -855.21675920
  atomic energy  EATOM  =     30241.87372392
  Solvation contrib.  Ediel  =         0.00000000
  ---------------------------------------------------
  free energy    TOTEN  =      -291.91043418 eV

  energy without entropy =     -291.88822618  energy(sigma->0) =     -291.90488218


--------------------------------------------------------------------------------------------------------




----------------------------------------- Iteration    1(  14)  ---------------------------------------


    POTLOK:  cpu time    0.40: real time    0.40
    SETDIJ:  cpu time    0.06: real time    0.06
     EDDAV:  cpu time   34.71: real time   34.72
       DOS:  cpu time    0.00: real time    0.00
    CHARGE:  cpu time    1.52: real time    1.52
    MIXING:  cpu time    0.01: real time    0.01
    --------------------------------------------
      LOOP:  cpu time   36.71: real time   36.71

 eigenvalue-minimisations  :  5200
 total energy-change (2. order) : 0.3466083E+01  (-0.1047506E+01)
 number of electron     348.9998584 magnetization      53.5474930
 augmentation part      185.0627158 magnetization      42.1216980

 Broyden mixing:
  rms(total) = 0.21824E+01    rms(broyden)= 0.21823E+01
  rms(prec ) = 0.22713E+01
  weight for this iteration     100.00

 eigenvalues of (default mixing * dielectric matrix)
  average eigenvalue GAMMA=   0.3309
  1.2139  0.4503  0.4503  0.3566  0.1303  0.1101  0.1101  0.0632  0.0937

 Free energy of the ion-electron system (eV)
  ---------------------------------------------------
  alpha Z        PSCENC =       533.70227597
  Ewald energy   TEWEN  =    169076.74594054
  -Hartree energ DENC   =   -198063.13323727
  -exchange      EXHF   =         0.00000000
  -V(xc)+E(xc)   XCENC  =       672.25965463
  PAW double counting   =     33260.37347890   -35168.76304685
  entropy T*S    EENTRO =        -0.01638031
  eigenvalues    EBANDS =      -841.48676025
  atomic energy  EATOM  =     30241.87372392
  Solvation contrib.  Ediel  =         0.00000000
  ---------------------------------------------------
  free energy    TOTEN  =      -288.44435072 eV

  energy without entropy =     -288.42797041  energy(sigma->0) =     -288.44025564


--------------------------------------------------------------------------------------------------------




----------------------------------------- Iteration    1(  15)  ---------------------------------------


    POTLOK:  cpu time    0.40: real time    0.40
    SETDIJ:  cpu time    0.06: real time    0.06
     EDDAV:  cpu time   37.30: real time   37.30
       DOS:  cpu time    0.00: real time    0.00
    CHARGE:  cpu time    1.54: real time    1.54
    MIXING:  cpu time    0.02: real time    0.02
    --------------------------------------------
      LOOP:  cpu time   39.32: real time   39.32

 eigenvalue-minimisations  :  5680
 total energy-change (2. order) :-0.3095239E+01  (-0.4940524E+00)
 number of electron     348.9998611 magnetization      53.6122553
 augmentation part      185.0535413 magnetization      42.7564788

 Broyden mixing:
  rms(total) = 0.20083E+01    rms(broyden)= 0.20082E+01
  rms(prec ) = 0.21271E+01
  weight for this iteration     100.00

 eigenvalues of (default mixing * dielectric matrix)
  average eigenvalue GAMMA=   0.3127
  1.2293  0.4400  0.4400  0.3209  0.1584  0.1584  0.1123  0.1123  0.0630  0.0921

 Free energy of the ion-electron system (eV)
  ---------------------------------------------------
  alpha Z        PSCENC =       533.70227597
  Ewald energy   TEWEN  =    169076.74594054
  -Hartree energ DENC   =   -198064.75891912
  -exchange      EXHF   =         0.00000000
  -V(xc)+E(xc)   XCENC  =       672.22468452
  PAW double counting   =     33335.70723307   -35244.11653414
  entropy T*S    EENTRO =         0.01805466
  eigenvalues    EBANDS =      -842.93604942
  atomic energy  EATOM  =     30241.87372392
  Solvation contrib.  Ediel  =         0.00000000
  ---------------------------------------------------
  free energy    TOTEN  =      -291.53959000 eV

  energy without entropy =     -291.55764466  energy(sigma->0) =     -291.54410366


--------------------------------------------------------------------------------------------------------




----------------------------------------- Iteration    1(  16)  ---------------------------------------


    POTLOK:  cpu time    0.40: real time    0.40
    SETDIJ:  cpu time    0.06: real time    0.06
     EDDAV:  cpu time   34.15: real time   34.15
       DOS:  cpu time    0.00: real time    0.00
    CHARGE:  cpu time    1.51: real time    1.51
    MIXING:  cpu time    0.02: real time    0.02
    --------------------------------------------
      LOOP:  cpu time   36.13: real time   36.14

 eigenvalue-minimisations  :  5056
 total energy-change (2. order) :-0.1175056E+01  (-0.2134030E+00)
 number of electron     348.9998607 magnetization      53.8209008
 augmentation part      184.9936871 magnetization      43.5189568

 Broyden mixing:
  rms(total) = 0.17975E+01    rms(broyden)= 0.17975E+01
  rms(prec ) = 0.19032E+01
  weight for this iteration     100.00

 eigenvalues of (default mixing * dielectric matrix)
  average eigenvalue GAMMA=   0.3571
  1.2937  0.5881  0.5881  0.3998  0.3998  0.1666  0.0631  0.1107  0.1107  0.1138
  0.0933

 Free energy of the ion-electron system (eV)
  ---------------------------------------------------
  alpha Z        PSCENC =       533.70227597
  Ewald energy   TEWEN  =    169076.74594054
  -Hartree energ DENC   =   -198068.68659785
  -exchange      EXHF   =         0.00000000
  -V(xc)+E(xc)   XCENC  =       672.10611294
  PAW double counting   =     33382.61456113   -35291.50542958
  entropy T*S    EENTRO =         0.00593026
  eigenvalues    EBANDS =      -839.57116325
  atomic energy  EATOM  =     30241.87372392
  Solvation contrib.  Ediel  =         0.00000000
  ---------------------------------------------------
  free energy    TOTEN  =      -292.71464591 eV

  energy without entropy =     -292.72057617  energy(sigma->0) =     -292.71612848


--------------------------------------------------------------------------------------------------------




----------------------------------------- Iteration    1(  17)  ---------------------------------------


    POTLOK:  cpu time    0.40: real time    0.40
    SETDIJ:  cpu time    0.06: real time    0.06
     EDDAV:  cpu time   33.98: real time   33.98
       DOS:  cpu time    0.00: real time    0.00
    CHARGE:  cpu time    1.49: real time    1.48
    MIXING:  cpu time    0.02: real time    0.02
    --------------------------------------------
      LOOP:  cpu time   35.95: real time   35.95

 eigenvalue-minimisations  :  5048
 total energy-change (2. order) :-0.2845267E+01  (-0.2652471E+00)
 number of electron     348.9998608 magnetization      53.9694014
 augmentation part      185.1210969 magnetization      45.0945610

 Broyden mixing:
  rms(total) = 0.16369E+01    rms(broyden)= 0.16368E+01
  rms(prec ) = 0.17720E+01
  weight for this iteration     100.00

 eigenvalues of (default mixing * dielectric matrix)
  average eigenvalue GAMMA=   0.3909
  1.3489  0.7634  0.7634  0.4140  0.4140  0.3448  0.0631  0.1114  0.1114  0.1427
  0.1222  0.0922

 Free energy of the ion-electron system (eV)
  ---------------------------------------------------
  alpha Z        PSCENC =       533.70227597
  Ewald energy   TEWEN  =    169076.74594054
  -Hartree energ DENC   =   -198080.93068086
  -exchange      EXHF   =         0.00000000
  -V(xc)+E(xc)   XCENC  =       672.66811558
  PAW double counting   =     33572.05140023   -35482.16393906
  entropy T*S    EENTRO =         0.00510928
  eigenvalues    EBANDS =      -829.51185821
  atomic energy  EATOM  =     30241.87372392
  Solvation contrib.  Ediel  =         0.00000000
  ---------------------------------------------------
  free energy    TOTEN  =      -295.55991261 eV

  energy without entropy =     -295.56502189  energy(sigma->0) =     -295.56118993


--------------------------------------------------------------------------------------------------------




----------------------------------------- Iteration    1(  18)  ---------------------------------------


    POTLOK:  cpu time    0.40: real time    0.40
    SETDIJ:  cpu time    0.06: real time    0.06
     EDDAV:  cpu time   35.03: real time   35.03
       DOS:  cpu time    0.00: real time    0.00
    CHARGE:  cpu time    1.52: real time    1.52
    MIXING:  cpu time    0.02: real time    0.02
    --------------------------------------------
      LOOP:  cpu time   37.03: real time   37.04

 eigenvalue-minimisations  :  5216
 total energy-change (2. order) :-0.1599206E+01  (-0.3081088E+00)
 number of electron     348.9998598 magnetization      54.2440002
 augmentation part      185.4167973 magnetization      46.2698565

 Broyden mixing:
  rms(total) = 0.18020E+01    rms(broyden)= 0.18020E+01
  rms(prec ) = 0.19493E+01
  weight for this iteration     100.00

 eigenvalues of (default mixing * dielectric matrix)
  average eigenvalue GAMMA=   0.4460
  1.5602  0.9523  0.9523  0.5320  0.5320  0.4961  0.0631  0.1113  0.1113  0.1459
  0.1351  0.0925  0.1139

 Free energy of the ion-electron system (eV)
  ---------------------------------------------------
  alpha Z        PSCENC =       533.70227597
  Ewald energy   TEWEN  =    169076.74594054
  -Hartree energ DENC   =   -198086.72566587
  -exchange      EXHF   =         0.00000000
  -V(xc)+E(xc)   XCENC  =       673.25362379
  PAW double counting   =     33672.78003554   -35582.13245099
  entropy T*S    EENTRO =        -0.00200071
  eigenvalues    EBANDS =      -826.65460035
  atomic energy  EATOM  =     30241.87372392
  Solvation contrib.  Ediel  =         0.00000000
  ---------------------------------------------------
  free energy    TOTEN  =      -297.15911816 eV

  energy without entropy =     -297.15711745  energy(sigma->0) =     -297.15861798


--------------------------------------------------------------------------------------------------------




----------------------------------------- Iteration    1(  19)  ---------------------------------------


    POTLOK:  cpu time    0.40: real time    0.40
    SETDIJ:  cpu time    0.06: real time    0.06
     EDDAV:  cpu time   37.73: real time   37.74
       DOS:  cpu time    0.00: real time    0.00
    CHARGE:  cpu time    1.48: real time    1.48
    MIXING:  cpu time    0.02: real time    0.02
    --------------------------------------------
      LOOP:  cpu time   39.70: real time   39.71

 eigenvalue-minimisations  :  5760
 total energy-change (2. order) :-0.2792701E+00  (-0.3521100E+00)
 number of electron     348.9998576 magnetization      54.3548334
 augmentation part      186.0130556 magnetization      47.9035636

 Broyden mixing:
  rms(total) = 0.79690E+00    rms(broyden)= 0.79682E+00
  rms(prec ) = 0.90434E+00
  weight for this iteration     100.00

 eigenvalues of (default mixing * dielectric matrix)
  average eigenvalue GAMMA=   0.4476
  1.5548  0.9780  0.9780  0.5858  0.5858  0.4666  0.3407  0.0631  0.1529  0.1113
  0.1113  0.1331  0.0924  0.1132

 Free energy of the ion-electron system (eV)
  ---------------------------------------------------
  alpha Z        PSCENC =       533.70227597
  Ewald energy   TEWEN  =    169076.74594054
  -Hartree energ DENC   =   -198098.48808984
  -exchange      EXHF   =         0.00000000
  -V(xc)+E(xc)   XCENC  =       674.28711703
  PAW double counting   =     33822.70829631   -35728.76328601
  entropy T*S    EENTRO =        -0.00806499
  eigenvalues    EBANDS =      -819.49630119
  atomic energy  EATOM  =     30241.87372392
  Solvation contrib.  Ediel  =         0.00000000
  ---------------------------------------------------
  free energy    TOTEN  =      -297.43838826 eV

  energy without entropy =     -297.43032327  energy(sigma->0) =     -297.43637201


--------------------------------------------------------------------------------------------------------




----------------------------------------- Iteration    1(  20)  ---------------------------------------


    POTLOK:  cpu time    0.40: real time    0.40
    SETDIJ:  cpu time    0.06: real time    0.06
     EDDAV:  cpu time   35.85: real time   35.85
       DOS:  cpu time    0.00: real time    0.00
    CHARGE:  cpu time    1.53: real time    1.53
    MIXING:  cpu time    0.02: real time    0.02
    --------------------------------------------
      LOOP:  cpu time   37.86: real time   37.86

 eigenvalue-minimisations  :  5352
 total energy-change (2. order) :-0.3626834E+00  (-0.1223043E+00)
 number of electron     348.9998567 magnetization      54.4769327
 augmentation part      186.1622116 magnetization      48.3596609

 Broyden mixing:
  rms(total) = 0.80372E+00    rms(broyden)= 0.80367E+00
  rms(prec ) = 0.85996E+00
  weight for this iteration     100.00

[...]
     33     Co          0.009          0.018          0.997
     34     Co          0.015          0.024          0.978
     35     Co          0.014          0.023          0.942
     36     Co          0.005          0.017          0.993
     37     C           0.035          0.015          0.662
     38     C          -0.140         -0.122          0.839
     39     C          -0.126         -0.116          0.834
     40     O          -0.177         -0.152          1.039
     41     H           0.059          0.039          0.794
     42     H           0.057          0.046          0.728
     43     H           0.035          0.020          0.798
     44     H           0.059          0.048          0.725
     45     H           0.058          0.038          0.781
     46     H           0.028          0.015          0.806
     47     H          -0.012         -0.017          0.681

  dDsC method for vdW energy calculation
  ---------------------------------------------------------------------------------------------

  Parameters of vdW forcefield:
            C6dDsC            XDM            ALPHAts        RELVOL
            (au)              (au)            (au)                
   ---------------------------------------------------------------
   Co        434.317         10.218         50.796          1.016
   Co        448.488         10.308         51.993          1.040
   Co        433.610         10.209         50.759          1.015
   Co        423.257         10.149         49.838          0.997
   Co        429.252         10.202         50.282          1.006
   Co        418.825         10.123         49.446          0.989
   Co        429.624         10.186         50.408          1.008
   Co        430.601         10.190         50.499          1.010
   Co        431.578         10.197         50.581          1.012
   Co        292.144          7.645         45.669          0.913
   Co        287.086          7.639         44.910          0.898
   Co        283.964          7.625         44.503          0.890
   Co        286.883          7.635         44.902          0.898
   Co        287.989          7.644         45.022          0.900
   Co        289.040          7.643         45.195          0.904
   Co        287.248          7.630         44.989          0.900
   Co        287.113          7.642         44.902          0.898
   Co        288.912          7.642         45.183          0.904
   Co        283.195          7.569         44.713          0.894
   Co        280.761          7.544         44.475          0.889
   Co        281.835          7.536         44.696          0.894
   Co        283.132          7.575         44.668          0.893
   Co        283.150          7.592         44.572          0.891
   Co        282.737          7.571         44.628          0.893
   Co        285.015          7.545         45.143          0.903
   Co        280.879          7.548         44.471          0.889
   Co        285.906          7.558         45.208          0.904
   Co        405.365          9.878         49.045          0.981
   Co        368.279          9.262         47.519          0.950
   Co        415.512         10.005         49.633          0.993
   Co        340.879          8.823         46.174          0.923
   Co        328.004          8.666         45.233          0.905
   Co        417.174          9.999         49.860          0.997
   Co        400.519          9.790         48.891          0.978
   Co        358.387          9.089         47.121          0.942
   Co        404.215          9.733         49.634          0.993
   C          31.034          4.665          7.949          0.662
   C          47.078          5.590         10.066          0.839
   C          46.601          5.567         10.004          0.834
   O          28.669          6.104          5.613          1.039
   H           6.348          2.122          3.575          0.794
   H           4.784          1.745          3.277          0.728
   H           6.842          2.276          3.593          0.798
   H           4.738          1.735          3.263          0.725
   H           6.301          2.142          3.516          0.781
   H           7.077          2.331          3.628          0.806
   H           5.025          1.960          3.064          0.681

  IVDW =   4
  VDW_RADIUS =    50.000 A
  VDW_S6 aka ATT0 =    13.960
  VDW_SR aka BTT0 =     1.320
  LVDW_ONECELL = F F F

  Number of pair interactions contributing to vdW energy:  493728
  Edisp (eV):   -9.02327
    FORVDW:  cpu time   20.31: real time   20.32

  FORCE on cell =-STRESS in cart. coord.  units (eV):
  Direction    XX          YY          ZZ          XY          YZ          ZX
  --------------------------------------------------------------------------------------
  Alpha Z   533.70228   533.70228   533.70228
  Ewald  187370.79417187368.40903************    23.72894   -26.59308  -151.23386
  Hartree194423.08253194454.44505************     9.03023   -15.42128   -98.84714
  E(xc)   -1757.09040 -1757.32262 -1759.02731     0.10632    -0.14782    -0.18952
  Local  ************************389088.31899   -27.53215    39.54398   246.59730
  n-local  -240.57268  -240.42097  -262.13715     0.43344    -0.45374    -0.25506
  augment  5607.85051  5610.49100  5603.48723    -0.50095     0.30878    -0.02841
  Kinetic  3103.57187  3122.40972  3134.34822    -5.27526     2.75711     3.62522
  Fock        0.00000     0.00000     0.00000     0.00000     0.00000     0.00000
  vdW       -10.98263   -11.12168    -7.64254     0.00304     0.00851     0.07015
  -------------------------------------------------------------------------------------
  Total     -20.11752   -18.86036   -10.96385    -0.00639     0.00245    -0.26133
  in kB     -27.44232   -25.72743   -14.95579    -0.00872     0.00334    -0.35648
  external pressure =      -22.71 kB  Pullay stress =        0.00 kB


 VOLUME and BASIS-vectors are now :
 -----------------------------------------------------------------------------
  energy-cutoff  :      400.00
  volume of cell :     1174.53
      direct lattice vectors                 reciprocal lattice vectors
     7.410000000  0.000000000  0.000000000     0.134952767  0.077914995  0.000000000
    -3.705000000  6.417250000  0.000000000     0.000000000  0.155829989  0.000000000
     0.000000000  0.000000000 24.700000000     0.000000000  0.000000000  0.040485830

  length of vectors
     7.410000000  7.410001522 24.700000000     0.155830021  0.155829989  0.040485830


 FORCES acting on ions
    electron-ion (+dipol)            ewald-force                    non-local-force                 convergence-correction
 -----------------------------------------------------------------------------------------------
   -.706E-01 0.190E-01 0.293E+04   0.574E-01 -.295E-01 -.293E+04   0.723E-02 0.203E-01 -.120E+01   -.939E-03 0.683E-02 0.352E-02
   0.376E-01 -.141E+00 0.293E+04   -.545E-01 0.171E+00 -.293E+04   0.129E-01 -.196E-01 -.116E+01   0.194E-02 0.742E-02 0.172E-02
   0.326E-01 -.181E+00 0.293E+04   -.443E-02 0.161E+00 -.293E+04   -.169E-01 0.134E-01 -.123E+01   -.100E-02 0.709E-02 0.214E-02
   0.136E+00 0.553E-02 0.293E+04   -.138E+00 0.140E-01 -.293E+04   0.155E-01 -.261E-01 -.124E+01   -.120E-02 -.473E-02 0.209E-02
   -.148E+00 -.304E-01 0.293E+04   0.172E+00 0.929E-02 -.293E+04   -.306E-01 0.147E-01 -.116E+01   0.101E-02 -.431E-02 0.208E-02
   0.246E-01 -.115E+00 0.293E+04   -.349E-01 0.108E+00 -.293E+04   -.960E-03 -.309E-02 -.122E+01   0.193E-03 -.651E-02 0.228E-02
   -.125E-01 0.893E-01 0.293E+04   0.174E-01 -.104E+00 -.293E+04   0.543E-03 0.896E-02 -.121E+01   0.270E-03 -.125E-02 0.158E-02
   -.157E+00 0.247E+00 0.293E+04   0.152E+00 -.203E+00 -.293E+04   0.225E-02 -.337E-01 -.123E+01   -.130E-02 -.181E-02 0.352E-02
   0.172E+00 0.110E+00 0.293E+04   -.170E+00 -.128E+00 -.293E+04   0.925E-02 0.178E-01 -.124E+01   0.104E-02 -.275E-02 0.265E-02
   -.143E+01 0.441E-01 0.114E+04   0.144E+01 -.596E-01 -.114E+04   0.393E-01 0.224E-01 -.410E+00   0.426E-03 0.290E-02 0.303E-02
   0.626E+00 0.607E+00 0.114E+04   -.589E+00 -.598E+00 -.114E+04   -.462E-01 0.453E-04 -.385E+00   -.961E-03 0.232E-02 0.552E-02
   0.530E+00 -.132E+01 0.114E+04   -.565E+00 0.133E+01 -.114E+04   0.820E-02 0.908E-02 -.403E+00   0.539E-03 0.373E-02 0.201E-02
   -.146E+01 -.764E+00 0.114E+04   0.148E+01 0.773E+00 -.114E+04   0.301E-01 0.353E-02 -.415E+00   0.353E-03 -.706E-03 0.271E-03
   0.476E-01 -.213E+01 0.114E+04   -.414E-01 0.213E+01 -.114E+04   -.391E-01 0.202E-01 -.346E+00   -.237E-03 0.469E-03 -.190E-03
   0.115E+01 -.235E+01 0.114E+04   -.117E+01 0.238E+01 -.114E+04   0.239E-01 0.288E-01 -.385E+00   -.116E-03 -.370E-03 -.189E-02
   0.196E+01 0.110E+01 0.114E+04   -.196E+01 -.110E+01 -.114E+04   -.703E-02 -.351E-01 -.438E+00   -.141E-02 -.278E-02 0.440E-02
   -.140E+01 0.279E+01 0.114E+04   0.142E+01 -.279E+01 -.114E+04   -.243E-02 -.415E-01 -.388E+00   0.119E-02 -.333E-02 0.351E-02
   -.687E+00 0.175E+01 0.114E+04   0.696E+00 -.178E+01 -.114E+04   0.310E-02 -.197E-02 -.491E+00   0.219E-03 -.222E-02 0.492E-02
   0.653E+01 0.423E+01 -.651E+03   -.656E+01 -.404E+01 0.650E+03   0.265E-01 -.186E+00 0.246E+00   0.273E-02 -.571E-03 0.143E-03
   -.708E+01 0.675E+01 -.648E+03   0.707E+01 -.640E+01 0.648E+03   0.146E-01 -.344E+00 0.307E-01   -.168E-02 -.825E-03 0.303E-02
   0.156E+01 -.926E+00 -.648E+03   -.151E+01 0.961E+00 0.647E+03   -.455E-01 -.310E-01 0.502E+00   -.991E-03 -.450E-03 0.401E-03
   0.661E+01 -.472E+00 -.652E+03   -.645E+01 0.345E+00 0.651E+03   -.161E+00 0.124E+00 0.369E+00   0.778E-03 0.278E-02 0.248E-02
   0.204E+01 -.511E+01 -.656E+03   -.202E+01 0.492E+01 0.656E+03   -.265E-01 0.188E+00 -.187E-01   0.244E-03 -.112E-02 0.207E-02
   -.101E+02 -.312E+01 -.659E+03   0.994E+01 0.299E+01 0.658E+03   0.213E+00 0.125E+00 0.147E+00   -.105E-02 0.131E-02 0.515E-03
   0.150E+01 -.370E+01 -.639E+03   -.146E+01 0.365E+01 0.638E+03   -.358E-01 0.579E-01 0.433E+00   -.285E-02 -.549E-03 0.618E-02
   -.404E+01 -.355E+01 -.641E+03   0.407E+01 0.353E+01 0.641E+03   -.270E-01 0.334E-01 0.475E+00   0.177E-02 -.102E-02 0.122E-02
   0.210E+01 0.624E+01 -.651E+03   -.219E+01 -.629E+01 0.651E+03   0.896E-01 0.465E-01 0.444E+00   0.110E-02 0.436E-03 0.420E-02
   0.334E+02 0.148E+02 -.250E+04   -.337E+02 -.148E+02 0.250E+04   0.237E+00 0.324E-01 0.162E+01   0.462E-03 -.177E-02 0.803E-03
   -.177E+02 0.692E+02 -.245E+04   0.179E+02 -.698E+02 0.244E+04   -.183E+00 0.675E+00 0.283E+01   0.338E-02 -.258E-02 -.111E-02
   -.170E+02 0.629E+01 -.252E+04   0.170E+02 -.648E+01 0.252E+04   -.703E-01 0.185E+00 0.157E+01   -.384E-02 -.379E-02 0.975E-03
   0.985E+02 0.479E+01 -.240E+04   -.989E+02 -.490E+01 0.240E+04   0.383E+00 0.101E+00 -.541E+00   0.106E-02 0.308E-02 0.209E-03
   -.104E+03 0.420E+02 -.237E+04   0.106E+03 -.433E+02 0.237E+04   -.114E+01 0.130E+01 0.230E+01   -.131E-02 -.957E-03 -.693E-03
   0.142E+02 0.309E+01 -.251E+04   -.141E+02 -.312E+01 0.250E+04   -.159E+00 0.281E-01 0.145E+01   0.260E-03 0.296E-02 0.852E-03
   0.333E+02 -.248E+02 -.249E+04   -.336E+02 0.249E+02 0.249E+04   0.318E+00 -.158E+00 0.193E+01   0.867E-03 0.256E-02 0.661E-03
   0.160E+02 -.834E+02 -.243E+04   -.160E+02 0.845E+02 0.243E+04   0.318E-01 -.107E+01 0.216E+01   -.353E-02 -.325E-03 0.983E-03
   -.504E+02 -.193E+02 -.251E+04   0.506E+02 0.196E+02 0.251E+04   -.184E+00 -.274E+00 0.126E+01   0.257E-02 0.743E-03 -.311E-03
   0.808E+02 0.128E+02 -.135E+04   -.874E+02 -.138E+02 0.135E+04   0.661E+01 0.938E+00 0.141E+01   -.314E-03 0.317E-03 -.204E-02
   0.760E+02 -.915E+02 -.137E+04   -.761E+02 0.918E+02 0.137E+04   0.886E-01 -.218E+00 -.699E-01   -.122E-03 0.242E-03 -.266E-02
   0.328E+02 0.117E+03 -.137E+04   -.331E+02 -.117E+03 0.137E+04   0.297E+00 -.151E-01 -.277E+00   0.190E-03 0.975E-04 -.208E-02
   -.223E+03 -.294E+02 -.214E+04   0.255E+03 0.290E+02 0.216E+04   -.326E+02 0.469E+00 -.154E+02   -.595E-03 0.525E-04 -.239E-02
   0.629E+02 -.180E+01 -.336E+03   -.684E+02 0.958E+00 0.336E+03   0.549E+01 0.855E+00 0.129E-01   0.110E-03 0.115E-03 -.685E-03
   -.763E+01 -.163E+02 -.354E+03   0.932E+01 0.166E+02 0.359E+03   -.169E+01 -.221E+00 -.506E+01   -.338E-04 -.228E-04 -.721E-03
   0.201E+00 -.605E+02 -.330E+03   0.734E+00 0.654E+02 0.328E+03   -.947E+00 -.488E+01 0.214E+01   -.132E-03 0.239E-05 -.733E-03
   -.144E+02 0.159E+02 -.357E+03   0.161E+02 -.158E+02 0.362E+03   -.172E+01 -.121E+00 -.507E+01   -.159E-04 0.351E-04 -.686E-03
   0.569E+02 0.274E+02 -.338E+03   -.623E+02 -.289E+02 0.338E+03   0.536E+01 0.147E+01 0.191E-01   0.102E-03 0.433E-04 -.500E-03
   -.239E+02 0.529E+02 -.333E+03   0.266E+02 -.568E+02 0.331E+03   -.278E+01 0.386E+01 0.217E+01   0.103E-03 -.617E-04 -.514E-03
   -.224E+02 -.411E+02 -.346E+03   0.227E+02 0.417E+02 0.347E+03   -.278E+00 -.665E+00 -.702E+00   -.631E-04 0.131E-03 -.317E-03
 -----------------------------------------------------------------------------------------------
   0.230E+02 -.229E+01 0.185E+02   -.497E-13 -.924E-13 -.111E-10   -.228E+02 0.229E+01 -.182E+02   -.806E-03 0.867E-03 0.524E-01
 
 
 POSITION                                       TOTAL-FORCE (eV/Angst)
 -----------------------------------------------------------------------------------
      1.23500      0.71303      0.00000        -0.009611      0.016640      0.438764
      3.70500      0.71303      0.00000        -0.004696      0.018016      0.453864
      6.17500      0.71303      0.00000         0.007652     -0.000289      0.443020
     -0.00000      2.85211      0.00000         0.008748     -0.011219      0.417257
      2.47000      2.85211      0.00000        -0.008729     -0.010622      0.463805
      4.94000      2.85211      0.00000        -0.013647     -0.016830      0.455707
      1.23500      4.99118      0.00000         0.003056     -0.007175      0.447341
      3.70500      4.99118      0.00000        -0.006563      0.009044      0.449591
     -1.23500      4.99118      0.00000         0.009136     -0.002877      0.462855
      0.00000      0.00000      2.01675         0.049259      0.009567     -0.460668
      2.47000      0.00000      2.01675        -0.012689      0.010933     -0.419644
      4.94000      0.00000      2.01675        -0.028457      0.026828     -0.481254
      1.23500      2.13908      2.01675         0.040905      0.011940     -0.476045
      3.70500      2.13908      2.01675        -0.035278      0.017949     -0.425704
      6.17500      2.13908      2.01675         0.003310      0.053823     -0.426103
      0.00000      4.27816      2.01675        -0.009687     -0.035153     -0.479044
      2.47000      4.27816      2.01675         0.017581     -0.050541     -0.407758
      4.94000      4.27816      2.01675         0.009870     -0.034141     -0.454562
      1.24462      0.73023      4.05909        -0.003123      0.003528     -0.000040
      3.70517      0.72402      4.05565         0.000477      0.000403      0.002057
      6.18239      0.71711      4.04424        -0.004643      0.002359      0.006478
      0.02032      2.84879      4.04994        -0.000306     -0.000790      0.003226
      2.47297      2.84359      4.07971        -0.005072     -0.001480     -0.001621
      4.93470      2.84709      4.06245         0.004009      0.002564     -0.003928
      1.23401      4.99468      4.03864        -0.005526      0.000036     -0.000949
      3.71500      4.99467      4.04691         0.004013      0.002781     -0.003925
     -1.23033      4.98762      4.05002        -0.000013      0.000477     -0.001607
      0.00546      0.01744      5.97783         0.002212     -0.004402     -0.000262
     -1.23566      6.38302      5.97417         0.011841     -0.003842      0.002749
      4.95956      0.00426      5.96695        -0.002537     -0.002712      0.001793
      1.26776      2.13476      6.11442        -0.000164     -0.007884     -0.005355
      3.72374      2.11878      6.05614         0.000618     -0.002305     -0.002936
     -1.19678      2.14441      5.97010        -0.003884      0.002134      0.007378
      0.01597      4.27626      5.96957         0.000258      0.003647     -0.003049
      2.48848      4.32551      5.97075        -0.002097      0.005066      0.004777
      4.93352      4.28140      6.00141         0.001231      0.003632      0.005298
      1.94547      2.18162      8.06616         0.006488      0.005184      0.007323
      1.19846      3.28858      8.79367        -0.000488     -0.012415     -0.006530
      1.72376      0.82188      8.70771        -0.010188      0.009558     -0.000110
      3.31961      2.43332      8.01593        -0.005690     -0.000102      0.002029
      0.11406      3.11153      8.78951        -0.005049     -0.000735     -0.003254
      1.55054      3.32432      9.84275        -0.003188      0.001771     -0.000847
      1.39655      4.27558      8.34092        -0.002902      0.000245     -0.003430
      2.07661      0.85569      9.75642        -0.000903     -0.001486      0.001603
      0.66233      0.53756      8.69991         0.001816     -0.002630     -0.003926
      2.30744      0.02326      8.20529         0.003636     -0.006768     -0.005024
      3.61655      3.52463      7.20217        -0.000987     -0.001731      0.000660
 -----------------------------------------------------------------------------------
    total drift:                                0.116488      0.005885      0.336119


--------------------------------------------------------------------------------------------------------



  FREE ENERGIE OF THE ION-ELECTRON SYSTEM (eV)
  ---------------------------------------------------
  free  energy   TOTEN  =      -308.41835002 eV

  energy  without entropy=     -308.40896170  energy(sigma->0) =     -308.41600294
 


--------------------------------------------------------------------------------------------------------


    POTLOK:  cpu time    0.42: real time    0.42


--------------------------------------------------------------------------------------------------------


 Dimer: Init Mode:
 Dimer: MODECAR found
 Dimer: -----------------
 Dimer: Itr    1 Rot    0

 Dimer: Central Point
 Dimer: F0      0.038634

 Dimer: Projection
 Dimer: N*F0 -3.300270974856380E-004
 Dimer: F0sq  1.492620574214896E-003
 Dimer: Feffsq   1.089178850747948E-007
 
 stress matrix after NEB project (eV)
    -20.11752     -0.00639     -0.26133
     -0.00639    -18.86036      0.00245
     -0.26133      0.00245    -10.96385
  FORCES: max atom, RMS     0.014036    0.005635
  FORCE total and by dimension    0.038634    0.012415
  Stress total and by dimension   29.677774   20.117516
 OPT: skip step - force has converged


--------------------------------------------------------------------------------------------------------


  
 reached required accuracy - stopping structural energy minimisation
     LOOP+:  cpu time 2276.92: real time 2277.18
    4ORBIT:  cpu time    0.00: real time    0.00

 total amount of memory used by VASP on root node   182247. kBytes
========================================================================

   base      :      30000. kBytes
   nonlr-proj:       9714. kBytes
   fftplans  :       6203. kBytes
   grid      :      28885. kBytes
   one-center:       1461. kBytes
   wavefun   :     105984. kBytes
 
  
  
 General timing and accounting informations for this job:
 ========================================================
  
                  Total CPU time used (sec):     2284.580
                            User time (sec):     2283.176
                          System time (sec):        1.404
                         Elapsed time (sec):     2286.052
  
                   Maximum memory used (kb):      226160.
                   Average memory used (kb):           0.
  
                          Minor page faults:       260834
                          Major page faults:           68
                 Voluntary context switches:         1123
