 vasp.5.3.5 31Mar14 (build Jan 31 2018 16:04:57) complex                        
  
 executed on             LinuxIFC date 2018.12.29  17:54:52
 running on    8 total cores
 distrk:  each k-point on    8 cores,    1 groups
 distr:  one band on NCORES_PER_BAND=   1 cores,    8 groups


--------------------------------------------------------------------------------------------------------


 INCAR:
 POTCAR:    PAW_PBE Co 02Aug2007                  
 POTCAR:    PAW_PBE C 08Apr2002                   
 POTCAR:    PAW_PBE O 08Apr2002                   
 POTCAR:    PAW_PBE H 15Jun2001                   

 ----------------------------------------------------------------------------- 
|                                                                             |
|           W    W    AA    RRRRR   N    N  II  N    N   GGGG   !!!           |
|           W    W   A  A   R    R  NN   N  II  NN   N  G    G  !!!           |
|           W    W  A    A  R    R  N N  N  II  N N  N  G       !!!           |
|           W WW W  AAAAAA  RRRRR   N  N N  II  N  N N  G  GGG   !            |
|           WW  WW  A    A  R   R   N   NN  II  N   NN  G    G                |
|           W    W  A    A  R    R  N    N  II  N    N   GGGG   !!!           |
|                                                                             |
|      For optimal performance we recommend to set                            |
|        NCORE= 4 - approx SQRT( number of cores)                             |
|      NCORE specifies how many cores store one orbital (NPAR=cpu/NCORE).     |
|      This setting can  greatly improve the performance of VASP for DFT.     |
|      The default, NPAR=number of cores might be grossly inefficient         |
|      on modern multi-core architectures or massively parallel machines.     |
|      Do your own testing !!!!                                               |
|      Unfortunately you need to use the default for GW and RPA calculations. |
|      (for HF NCORE is supported but not extensively tested yet)             |
|                                                                             |
 ----------------------------------------------------------------------------- 

 POTCAR:    PAW_PBE Co 02Aug2007                  
   VRHFIN =Co: d8 s1                                                            
   LEXCH  = PE                                                                  
   EATOM  =   813.3670 eV,   59.7808 Ry                                         
                                                                                
   TITEL  = PAW_PBE Co 02Aug2007                                                
   LULTRA =        F    use ultrasoft PP ?                                      
   IUNSCR =        1    unscreen: 0-lin 1-nonlin 2-no                           
   RPACOR =    2.000    partial core radius                                     
   POMASS =   58.933; ZVAL   =    9.000    mass and valenz                      
   RCORE  =    2.300    outmost cutoff radius                                   
   RWIGS  =    2.460; RWIGS  =    1.302    wigner-seitz radius (au A)           
   ENMAX  =  267.968; ENMIN  =  200.976 eV                                      
   RCLOC  =    1.203    cutoff for local pot                                    
   LCOR   =        T    correct aug charges                                     
   LPAW   =        T    paw PP                                                  
   EAUG   =  477.818                                                            
   DEXC   =    0.000                                                            
   RMAX   =    2.360    core radius for proj-oper                               
   RAUG   =    1.300    factor for augmentation sphere                          
   RDEP   =    2.393    radius for radial grids                                 
   RDEPT  =    1.864    core radius for aug-charge                              
                                                                                
   Atomic configuration                                                         
    9 entries                                                                   
     n  l   j            E        occ.                                          
     1  0  0.50     -7587.6674   2.0000                                         
     2  0  0.50      -893.6084   2.0000                                         
     2  1  1.50      -764.5805   6.0000                                         
     3  0  0.50       -97.5973   2.0000                                         
     3  1  1.50       -60.9648   6.0000                                         
     3  2  2.50        -4.2382   8.0000                                         
     4  0  0.50        -4.3746   1.0000                                         
     4  1  1.50        -4.0817   0.0000                                         
     4  3  2.50        -1.3606   0.0000                                         
   Description                                                                  
     l       E           TYP  RCUT    TYP  RCUT                                 
     2     -4.2382362     23  2.300                                             
     2     -5.5988188     23  2.300                                             
     0     -4.3745797     23  2.300                                             
     0      5.7660125     23  2.300                                             
     1     -2.7211652     23  2.300                                             
     1     16.9860234     23  2.300                                             
  local pseudopotential read in
  partial core-charges read in
  partial kinetic energy density read in
  atomic valenz-charges read in
  non local Contribution for L=           2  read in
    real space projection operators read in
  non local Contribution for L=           2  read in
    real space projection operators read in
  non local Contribution for L=           0  read in
    real space projection operators read in
  non local Contribution for L=           0  read in
    real space projection operators read in
  non local Contribution for L=           1  read in
    real space projection operators read in
  non local Contribution for L=           1  read in
    real space projection operators read in
    PAW grid and wavefunctions read in
 
   number of l-projection  operators is LMAX  =           6
   number of lm-projection operators is LMMAX =          18
 
 POTCAR:    PAW_PBE C 08Apr2002                   
   VRHFIN =C: s2p2                                                              
   LEXCH  = PE                                                                  
   EATOM  =   147.1560 eV,   10.8157 Ry                                         
                                                                                
   TITEL  = PAW_PBE C 08Apr2002                                                 
   LULTRA =        F    use ultrasoft PP ?                                      
   IUNSCR =        1    unscreen: 0-lin 1-nonlin 2-no                           
   RPACOR =    1.200    partial core radius                                     
   POMASS =   12.011; ZVAL   =    4.000    mass and valenz                      
   RCORE  =    1.500    outmost cutoff radius                                   
   RWIGS  =    1.630; RWIGS  =    0.863    wigner-seitz radius (au A)           
   ENMAX  =  400.000; ENMIN  =  300.000 eV                                      
   ICORE  =        2    local potential                                         
   LCOR   =        T    correct aug charges                                     
   LPAW   =        T    paw PP                                                  
   EAUG   =  644.873                                                            
   DEXC   =    0.000                                                            
   RMAX   =    1.529    core radius for proj-oper                               
   RAUG   =    1.300    factor for augmentation sphere                          
   RDEP   =    1.501    radius for radial grids                                 
   RDEPT  =    1.300    core radius for aug-charge                              
                                                                                
   Atomic configuration                                                         
    4 entries                                                                   
     n  l   j            E        occ.                                          
     1  0  0.50      -273.3789   2.0000                                         
     2  0  0.50       -13.7508   2.0000                                         
     2  1  0.50        -5.2854   2.0000                                         
     3  2  1.50        -5.4423   0.0000                                         
   Description                                                                  
     l       E           TYP  RCUT    TYP  RCUT                                 
     0    -13.7508458     23  1.200                                             
     0     -8.2022199     23  1.200                                             
     1     -5.2854383     23  1.500                                             
     1     34.0145650     23  1.500                                             
     2     -5.4423304      7  1.500                                             
  local pseudopotential read in
  partial core-charges read in
  partial kinetic energy density read in
  atomic valenz-charges read in
  non local Contribution for L=           0  read in
    real space projection operators read in
  non local Contribution for L=           0  read in
    real space projection operators read in
  non local Contribution for L=           1  read in
    real space projection operators read in
  non local Contribution for L=           1  read in
    real space projection operators read in
    PAW grid and wavefunctions read in
 
   number of l-projection  operators is LMAX  =           4
   number of lm-projection operators is LMMAX =           8
 
 POTCAR:    PAW_PBE O 08Apr2002                   
   VRHFIN =O: s2p4                                                              
   LEXCH  = PE                                                                  
   EATOM  =   432.3788 eV,   31.7789 Ry                                         
                                                                                
   TITEL  = PAW_PBE O 08Apr2002                                                 
   LULTRA =        F    use ultrasoft PP ?                                      
   IUNSCR =        1    unscreen: 0-lin 1-nonlin 2-no                           
   RPACOR =    1.200    partial core radius                                     
   POMASS =   16.000; ZVAL   =    6.000    mass and valenz                      
   RCORE  =    1.520    outmost cutoff radius                                   
   RWIGS  =    1.550; RWIGS  =    0.820    wigner-seitz radius (au A)           
   ENMAX  =  400.000; ENMIN  =  300.000 eV                                      
   ICORE  =        2    local potential                                         
   LCOR   =        T    correct aug charges                                     
   LPAW   =        T    paw PP                                                  
   EAUG   =  605.392                                                            
   DEXC   =    0.000                                                            
   RMAX   =    1.553    core radius for proj-oper                               
   RAUG   =    1.300    factor for augmentation sphere                          
   RDEP   =    1.550    radius for radial grids                                 
   RDEPT  =    1.329    core radius for aug-charge                              
                                                                                
   Atomic configuration                                                         
    4 entries                                                                   
     n  l   j            E        occ.                                          
     1  0  0.50      -514.6923   2.0000                                         
     2  0  0.50       -23.9615   2.0000                                         
     2  1  0.50        -9.0305   4.0000                                         
     3  2  1.50        -9.5241   0.0000                                         
   Description                                                                  
     l       E           TYP  RCUT    TYP  RCUT                                 
     0    -23.9615318     23  1.200                                             
     0     -9.5240782     23  1.200                                             
     1     -9.0304911     23  1.520                                             
     1      8.1634956     23  1.520                                             
     2     -9.5240782      7  1.500                                             
  local pseudopotential read in
  partial core-charges read in
  partial kinetic energy density read in
  kinetic energy density of atom read in
  atomic valenz-charges read in
  non local Contribution for L=           0  read in
    real space projection operators read in
  non local Contribution for L=           0  read in
    real space projection operators read in
  non local Contribution for L=           1  read in
    real space projection operators read in
  non local Contribution for L=           1  read in
    real space projection operators read in
    PAW grid and wavefunctions read in
 
   number of l-projection  operators is LMAX  =           4
   number of lm-projection operators is LMMAX =           8
 
 POTCAR:    PAW_PBE H 15Jun2001                   
   VRHFIN =H: ultrasoft test                                                    
   LEXCH  = PE                                                                  
   EATOM  =    12.4884 eV,    0.9179 Ry                                         
                                                                                
   TITEL  = PAW_PBE H 15Jun2001                                                 
   LULTRA =        F    use ultrasoft PP ?                                      
   IUNSCR =        0    unscreen: 0-lin 1-nonlin 2-no                           
   RPACOR =    0.000    partial core radius                                     
   POMASS =    1.000; ZVAL   =    1.000    mass and valenz                      
   RCORE  =    1.100    outmost cutoff radius                                   
   RWIGS  =    0.700; RWIGS  =    0.370    wigner-seitz radius (au A)           
   ENMAX  =  250.000; ENMIN  =  200.000 eV                                      
   RCLOC  =    0.701    cutoff for local pot                                    
   LCOR   =        T    correct aug charges                                     
   LPAW   =        T    paw PP                                                  
   EAUG   =  400.000                                                            
   RMAX   =    1.123    core radius for proj-oper                               
   RAUG   =    1.200    factor for augmentation sphere                          
   RDEP   =    1.112    radius for radial grids                                 
   RDEPT  =    0.926    core radius for aug-charge                              
                                                                                
   Atomic configuration                                                         
    2 entries                                                                   
     n  l   j            E        occ.                                          
     1  0  0.50        -6.4927   1.0000                                         
     2  1  0.50        -3.4015   0.0000                                         
   Description                                                                  
     l       E           TYP  RCUT    TYP  RCUT                                 
     0     -6.4927494     23  1.100                                             
     0      6.8029130     23  1.100                                             
     1     -4.0817478     23  1.100                                             
  local pseudopotential read in
  atomic valenz-charges read in
  non local Contribution for L=           0  read in
    real space projection operators read in
  non local Contribution for L=           0  read in
    real space projection operators read in
  non local Contribution for L=           1  read in
    real space projection operators read in
    PAW grid and wavefunctions read in
 
   number of l-projection  operators is LMAX  =           3
   number of lm-projection operators is LMMAX =           5
 
 Optimization of the real space projectors (new method)

 maximal supplied QI-value         = 16.25
 optimisation between [QCUT,QGAM] = [ 10.24, 20.48] = [ 29.35,117.42] Ry 
 Optimized for a Real-space Cutoff    1.34 Angstroem

   l    n(q)    QCUT    max X(q) W(low)/X(q) W(high)/X(q)  e(spline) 
   2      7    10.239    65.824    0.41E-03    0.10E-02    0.11E-06
   2      7    10.239    61.429    0.41E-03    0.10E-02    0.11E-06
   0      8    10.239    56.174    0.42E-03    0.17E-03    0.96E-07
   0      8    10.239    31.263    0.38E-03    0.16E-03    0.87E-07
   1      8    10.239    19.828    0.20E-03    0.56E-03    0.13E-06
   1      8    10.239    15.139    0.15E-03    0.46E-03    0.11E-06
 Optimization of the real space projectors (new method)

 maximal supplied QI-value         = 25.13
 optimisation between [QCUT,QGAM] = [ 10.05, 20.36] = [ 28.30,116.06] Ry 
 Optimized for a Real-space Cutoff    1.30 Angstroem

   l    n(q)    QCUT    max X(q) W(low)/X(q) W(high)/X(q)  e(spline) 
   0      8    10.053   115.676    0.49E-03    0.72E-03    0.18E-06
   0      8    10.053    87.132    0.49E-03    0.71E-03    0.18E-06
   1      7    10.053     4.429    0.32E-03    0.31E-03    0.18E-06
   1      7    10.053     2.733    0.23E-03    0.19E-03    0.20E-06
 Optimization of the real space projectors (new method)

 maximal supplied QI-value         = 24.76
 optimisation between [QCUT,QGAM] = [ 10.15, 20.30] = [ 28.85,115.39] Ry 
 Optimized for a Real-space Cutoff    1.38 Angstroem

   l    n(q)    QCUT    max X(q) W(low)/X(q) W(high)/X(q)  e(spline) 
   0      8    10.150    20.381    0.22E-03    0.32E-03    0.29E-06
   0      8    10.150    15.268    0.23E-03    0.35E-03    0.30E-06
   1      8    10.150     5.964    0.46E-03    0.53E-03    0.21E-06
   1      8    10.150     5.382    0.38E-03    0.45E-03    0.19E-06
 Optimization of the real space projectors (new method)

 maximal supplied QI-value         = 34.20
 optimisation between [QCUT,QGAM] = [  9.92, 20.18] = [ 27.55,114.04] Ry 
 Optimized for a Real-space Cutoff    1.26 Angstroem

   l    n(q)    QCUT    max X(q) W(low)/X(q) W(high)/X(q)  e(spline) 
   0      8     9.919    19.460    0.50E-03    0.23E-03    0.29E-06
   0      8     9.919    12.209    0.48E-03    0.23E-03    0.28E-06
   1      7     9.919     4.655    0.17E-03    0.75E-03    0.30E-06
  PAW_PBE Co 02Aug2007                  :
 energy of atom  1       EATOM= -813.3670
 kinetic energy error for atom=    0.0093 (will be added to EATOM!!)
  PAW_PBE C 08Apr2002                   :
 energy of atom  2       EATOM= -147.1560
 kinetic energy error for atom=    0.0288 (will be added to EATOM!!)
  PAW_PBE O 08Apr2002                   :
 energy of atom  3       EATOM= -432.3788
 kinetic energy error for atom=    0.1156 (will be added to EATOM!!)
  PAW_PBE H 15Jun2001                   :
 energy of atom  4       EATOM=  -12.4884
 kinetic energy error for atom=    0.0098 (will be added to EATOM!!)
 
 
 POSCAR: Co C O H                                
  positions in direct lattice
  velocities in cartesian coordinates
 exchange correlation table for  LEXCH =        8
   RHO(1)=    0.500       N(1)  =     2000
   RHO(2)=  100.500       N(2)  =     4000

 VTST: version 3.1, (03/28/14)

 CHAIN: initializing optimizer
 
 OPT: Using Conjugate-Gradient optimizer
 OPT: CG, Init
 OPT: CG, FDSTEP      0.005000
 OPT: CG, MAXMOVE      0.200000
 
 CHAIN: Read ICHAIN            2
 
 POSCAR: Co C O H                                
  positions in direct lattice
  velocities in cartesian coordinates
 CHAIN: Running the Dimer method

 Dimer: -----------------
 Dimer: Input Parameters
 Dimer:   Seed      0
 Dimer: RotMax      1
 Dimer:     dR      0.005000
 Dimer:  FNMax      1.000000
 Dimer:  FNMin      0.010000
 Dimer: -----------------
 


--------------------------------------------------------------------------------------------------------


 ion  position               nearest neighbor table
   1  0.500  0.500  0.000-  16 2.46  14 2.46   4 2.46   2 2.46  13 2.47   9 2.47  17 2.48
   2  0.667  0.750  0.000-   9 2.46  11 2.46   1 2.46   3 2.46  10 2.47  14 2.47  18 2.48
   3  0.500  0.000  0.000-  16 2.46  14 2.46   4 2.46   2 2.46  15 2.47  11 2.47  19 2.49
   4  0.667  0.250  0.000-   9 2.46  11 2.46   1 2.46   3 2.46  12 2.47  16 2.47  20 2.50
   5  0.000  0.500  0.000-  12 2.46  10 2.46   8 2.46   6 2.46   9 2.47  13 2.47  21 2.50
   6  0.167  0.750  0.000-  13 2.46  15 2.46   5 2.46   7 2.46  22 2.47  14 2.47  10 2.47
   7  0.000  0.000  0.000-  12 2.46  10 2.46   8 2.46   6 2.46  11 2.47  15 2.47  23 2.49
   8  0.167  0.250  0.000-  13 2.46  15 2.46   5 2.46   7 2.46  16 2.47  12 2.47  24 2.48
   9  0.750  0.500  0.056-  25 2.38  17 2.45   4 2.46   2 2.46  12 2.46  10 2.46   5 2.47   1 2.47
                            18 2.48  20 2.49  21 2.51
  10  0.917  0.750  0.056-  26 2.37   5 2.46   7 2.46   9 2.46  11 2.46   2 2.47   6 2.47  23 2.48
                            21 2.48  22 2.48  18 2.51
  11  0.750  0.000  0.056-  27 2.36   4 2.46   2 2.46  12 2.46  10 2.46   7 2.47   3 2.47  20 2.47
                            18 2.47  19 2.51  23 2.51
  12  0.917  0.250  0.056-  28 2.38   5 2.46   7 2.46   9 2.46  11 2.46   4 2.47   8 2.47  24 2.47
                            23 2.48  21 2.49  20 2.50
  13  0.250  0.500  0.056-  29 2.38  21 2.45   8 2.46   6 2.46  16 2.46  14 2.46   1 2.47   5 2.47
                            22 2.47  24 2.48  17 2.50
  14  0.417  0.750  0.056-  18 2.44  19 2.45   1 2.46   3 2.46  13 2.46  15 2.46  22 2.46  17 2.47
                             6 2.47   2 2.47  30 2.51
  15  0.250  0.000  0.056-  22 2.44  23 2.45  19 2.45   8 2.46   6 2.46  16 2.46  14 2.46  24 2.46
                             3 2.47   7 2.47  31 2.51
  16  0.417  0.250  0.056-  32 2.37   1 2.46   3 2.46  13 2.46  15 2.46  20 2.47   8 2.47   4 2.47
                            19 2.47  17 2.48  24 2.48
  17  0.503  0.501  0.112-  29 2.39  32 2.43  18 2.43  30 2.45  20 2.45  25 2.45   9 2.45  14 2.47
                            16 2.48   1 2.48  13 2.50
  18  0.662  0.751  0.112-  26 2.39  27 2.43  17 2.43  19 2.44  14 2.44  25 2.45  30 2.47  11 2.47
                             2 2.48   9 2.48  10 2.51
  19  0.497  0.998  0.112-  32 2.42  18 2.44  14 2.45  31 2.45  15 2.45  20 2.47  16 2.47   3 2.49
                            27 2.49  30 2.49  11 2.51
  20  0.665  0.249  0.112-  28 2.38  27 2.41  32 2.42  25 2.44  17 2.45  16 2.47  11 2.47  19 2.47
                             9 2.49   4 2.50  12 2.50
  21  0.004  0.501  0.112-  25 2.39  26 2.42  28 2.44  29 2.44  24 2.45  13 2.45  22 2.45  10 2.48
                            12 2.49   5 2.50   9 2.51
  22  0.168  0.752  0.111-  23 2.43  15 2.44  29 2.45  21 2.45  14 2.46  30 2.47   6 2.47  13 2.47
                            10 2.48  26 2.49  31 2.50
  23  0.004  1.000  0.112-  27 2.39  22 2.43  26 2.43  24 2.44  28 2.44  15 2.45  31 2.46  10 2.48
                            12 2.48   7 2.49  11 2.51
  24  0.166  0.249  0.112-  32 2.40  29 2.43  23 2.44  31 2.44  21 2.45  28 2.46  15 2.46  12 2.47
                            13 2.48  16 2.48   8 2.48
  25  0.757  0.500  0.162-   9 2.38  26 2.39  21 2.39  28 2.40  20 2.44  18 2.45  17 2.45
  26  0.909  0.750  0.162-  10 2.37  25 2.39  27 2.39  18 2.39  21 2.42  23 2.43  22 2.49
  27  0.757  1.000  0.162-  11 2.36  23 2.39  26 2.39  28 2.40  20 2.41  18 2.43  19 2.49
  28  0.911  0.250  0.162-  12 2.38  20 2.38  25 2.40  27 2.40  21 2.44  23 2.44  24 2.46
  29  0.257  0.499  0.163-  40 1.78  13 2.38  30 2.38  17 2.39  32 2.41  24 2.43  21 2.44  22 2.45

  30  0.414  0.744  0.168-  40 1.60  34 2.28  29 2.38  17 2.45  22 2.47  18 2.47  19 2.49  14 2.51
                            31 2.52
  31  0.251  0.005  0.168-  36 1.83  32 2.42  24 2.44  19 2.45  23 2.46  22 2.50  15 2.51  30 2.52

  32  0.414  0.250  0.162-  16 2.37  24 2.40  29 2.41  31 2.42  20 2.42  19 2.42  17 2.43
  33  0.244  0.696  0.308-  37 1.10  39 1.10  38 1.10  34 1.52
  34  0.339  0.801  0.264-  36 1.34  35 1.52  33 1.52  30 2.28
  35  0.508  0.826  0.283-  42 1.10  43 1.10  41 1.11  34 1.52
  36  0.262  0.938  0.247-  34 1.34  31 1.83
  37  0.128  0.669  0.289-  33 1.10
  38  0.228  0.769  0.350-  33 1.10
  39  0.303  0.579  0.319-  33 1.10
  40  0.327  0.638  0.219-  30 1.60  29 1.78
  41  0.507  0.886  0.328-  35 1.11
  42  0.571  0.708  0.286-  35 1.10
  43  0.569  0.910  0.252-  35 1.10
 
  LATTYP: Found a simple orthorhombic cell.
 ALAT       =     8.0199986100
 B/A-ratio  =     1.0673318421
 C/A-ratio  =     2.7718209293
  
  Lattice vectors:
  
 A1 = (   0.0000000000,  -8.0199986100,   0.0000000000)
 A2 = (  -8.5599998900,   0.0000000000,   0.0000000000)
 A3 = (   0.0000000000,   0.0000000000, -22.2300000000)


Analysis of symmetry for initial positions (statically):
=====================================================================
 Subroutine PRICEL returns:
 Original cell was already a primitive cell.
 

 Routine SETGRP: Setting up the symmetry group for a 
 simple orthorhombic supercell.


 Subroutine GETGRP returns: Found  1 space group operations
 (whereof  1 operations were pure point group operations)
 out of a pool of  8 trial point group operations.


The static configuration has the point symmetry C_1 .


Analysis of symmetry for dynamics (positions and initial velocities):
=====================================================================
 Subroutine PRICEL returns:
 Original cell was already a primitive cell.
 

 Routine SETGRP: Setting up the symmetry group for a 
 simple orthorhombic supercell.


 Subroutine GETGRP returns: Found  1 space group operations
 (whereof  1 operations were pure point group operations)
 out of a pool of  8 trial point group operations.


The dynamic configuration has the point symmetry C_1 .


Analysis of constrained symmetry for selective dynamics:
=====================================================================
 Subroutine PRICEL returns:
 Original cell was already a primitive cell.
 

 Routine SETGRP: Setting up the symmetry group for a 
 simple orthorhombic supercell.


 Subroutine GETGRP returns: Found  1 space group operations
 (whereof  1 operations were pure point group operations)
 out of a pool of  8 trial point group operations.


The constrained configuration has the point symmetry C_1 .


Analysis of magnetic symmetry:
=====================================================================
 Subroutine PRICEL returns:
 Original cell was already a primitive cell.
 

 Subroutine MAGSYM returns: Found  1 space group operations
 (whereof  1 operations were pure point group operations)
 out of a pool of  1 trial space group operations
 (whereof  1 operations were pure point group operations)
 and found also     1 'primitive' translations


The magnetic configuration has the point symmetry C_1 .
 
 
 KPOINTS:  Automatic mesh                         

Automatic generation of k-mesh.
Space group operators:
 irot       det(A)        alpha          n_x          n_y          n_z        tau_x        tau_y        tau_z
    1     1.000000     0.000000     1.000000     0.000000     0.000000     0.000000     0.000000     0.000000
 
 Subroutine IBZKPT returns following result:
 ===========================================
 
 Found      5 irreducible k-points:
 
 Following reciprocal coordinates:
            Coordinates               Weight
  0.000000  0.000000  0.000000      1.000000
  0.333333  0.000000  0.000000      2.000000
  0.000000  0.333333  0.000000      2.000000
  0.333333  0.333333  0.000000      2.000000
 -0.333333  0.333333  0.000000      2.000000
 
 Following cartesian coordinates:
            Coordinates               Weight
  0.000000  0.000000  0.000000      1.000000
  0.096184  0.000000  0.000000      2.000000
  0.000000  0.102660  0.000000      2.000000
  0.096184  0.102660  0.000000      2.000000
 -0.096184  0.102660  0.000000      2.000000
 


--------------------------------------------------------------------------------------------------------




 Dimension of arrays:
   k-points           NKPTS =      5   k-points in BZ     NKDIM =      5   number of bands    NBANDS=    216
   number of dos      NEDOS =    301   number of ions     NIONS =     43
   non local maximal  LDIM  =      6   non local SUM 2l+1 LMDIM =     18
   total plane-waves  NPLWV = 188160
   max r-space proj   IRMAX =   1408   max aug-charges    IRDMAX=   5061
   dimension x,y,z NGX =    42 NGY =   40 NGZ =  112
   dimension x,y,z NGXF=    84 NGYF=   80 NGZF=  224
   support grid    NGXF=    84 NGYF=   80 NGZF=  224
   ions per type =              32   3   1   7
 NGX,Y,Z   is equivalent  to a cutoff of   8.16,  8.29,  8.38 a.u.
 NGXF,Y,Z  is equivalent  to a cutoff of  16.31, 16.58, 16.75 a.u.


 I would recommend the setting:
   dimension x,y,z NGX =    42 NGY =   39 NGZ =  109
 SYSTEM =  unknown system                          
 POSCAR =  Co C O H                                

 Startparameter for this run:
   NWRITE =      2    write-flag & timer
   PREC   = normal    normal or accurate (medium, high low for compatibility)
   ISTART =      0    job   : 0-new  1-cont  2-samecut
   ICHARG =      2    charge: 1-file 2-atom 10-const
   ISPIN  =      2    spin polarized calculation?
   LNONCOLLINEAR =      F non collinear calculations
   LSORBIT =      F    spin-orbit coupling
   INIWAV =      1    electr: 0-lowe 1-rand  2-diag
   LASPH  =      F    aspherical Exc in radial PAW
   METAGGA=      F    non-selfconsistent MetaGGA calc.
   LSOL =      F    Solvation

 Electronic Relaxation 1
   ENCUT  =  400.0 eV  29.40 Ry    5.42 a.u.  13.96 13.08 36.25*2*pi/ulx,y,z
   ENINI  =  400.0     initial cutoff
   ENAUG  =  644.9 eV  augmentation charge cutoff
   NELM   =     60;   NELMIN=  2; NELMDL= -5     # of ELM steps 
   EDIFF  = 0.1E-05   stopping-criterion for ELM
   LREAL  =      T    real-space projection
   NLSPLINE    = F    spline interpolate recip. space projectors
   LCOMPAT=      F    compatible to vasp.4.4
   GGA_COMPAT  = T    GGA compatible to vasp.4.4-vasp.4.6
   LMAXPAW     = -100 max onsite density
   LMAXMIX     =    2 max onsite mixed and CHGCAR
   VOSKOWN=      0    Vosko Wilk Nusair interpolation
   ROPT   =   -0.00050  -0.00050  -0.00050  -0.00050
 Ionic relaxation
   EDIFFG = -.1E-01   stopping-criterion for IOM
   NSW    =    500    number of steps for IOM
   NBLOCK =      1;   KBLOCK =    500    inner block; outer block 
   IBRION =      3    ionic relax: 0-MD 1-quasi-New 2-CG
   NFREE  =      0    steps in history (QN), initial steepest desc. (CG)
   ISIF   =      2    stress and relaxation
   IWAVPR =     11    prediction:  0-non 1-charg 2-wave 3-comb
   ISYM   =      2    0-nonsym 1-usesym 2-fastsym
   LCORR  =      T    Harris-Foulkes like correction to forces

   POTIM  = 0.0000    time-step for ionic-motion
   TEIN   =    0.0    initial temperature
   TEBEG  =    0.0;   TEEND  =   0.0 temperature during run
   SMASS  =  -3.00    Nose mass-parameter (am)
   estimated Nose-frequenzy (Omega)   =  0.10E-29 period in steps =  0.00 mass=  -0.167E-26a.u.
   SCALEE = 1.0000    scale energy and forces
   NPACO  =    256;   APACO  = 16.0  distance and # of slots for P.C.
   PSTRESS=    0.0 pullay stress

  Mass of Ions in am
   POMASS =  58.93 12.01 16.00  1.00
  Ionic Valenz
   ZVAL   =   9.00  4.00  6.00  1.00
  Atomic Wigner-Seitz radii
   RWIGS  =  -1.00 -1.00 -1.00 -1.00
  virtual crystal weights 
   VCA    =   1.00  1.00  1.00  1.00
   NELECT =     313.0000    total number of electrons
   NUPDOWN=      -1.0000    fix difference up-down

 DOS related values:
   EMIN   =  10.00;   EMAX   =-10.00  energy-range for DOS
   EFERMI =   0.00
   ISMEAR =     2;   SIGMA  =   0.20  broadening in eV -4-tet -1-fermi 0-gaus

 Electronic relaxation 2 (details)
   IALGO  =     38    algorithm
   LDIAG  =      T    sub-space diagonalisation (order eigenvalues)
   LSUBROT=      F    optimize rotation matrix (better conditioning)
   TURBO    =      0    0=normal 1=particle mesh
   IRESTART =      0    0=no restart 2=restart with 2 vectors
   NREBOOT  =      0    no. of reboots
   NMIN     =      0    reboot dimension
   EREF     =   0.00    reference energy to select bands
   IMIX   =      4    mixing-type and parameters
     AMIX     =   0.40;   BMIX     =  1.00
     AMIX_MAG =   1.60;   BMIX_MAG =  1.00
     AMIN     =   0.10
     WC   =   100.;   INIMIX=   1;  MIXPRE=   1;  MAXMIX= -45

 Intra band minimization:
   WEIMIN = 0.0010     energy-eigenvalue tresh-hold
   EBREAK =  0.12E-08  absolut break condition
   DEPER  =   0.30     relativ break condition  

   TIME   =   0.40     timestep for ELM

  volume/ion in A,a.u.               =      35.49       239.51
  Fermi-wavevector in a.u.,A,eV,Ry     =   0.965444  1.824425 12.681748  0.932082
  Thomas-Fermi vector in A             =   2.095161
 
 Write flags
   LWAVE  =      F    write WAVECAR
   LCHARG =      F    write CHGCAR
   LVTOT  =      F    write LOCPOT, total local potential
   LVHAR  =      F    write LOCPOT, Hartree potential only
   LELF   =      F    write electronic localiz. function (ELF)
   LORBIT =      0    0 simple, 1 ext, 2 COOP (PROOUT)


 Dipole corrections
   LMONO  =      F    monopole corrections only (constant potential shift)
   LDIPOL =      F    correct potential (dipole corrections)
   IDIPOL =      3    1-x, 2-y, 3-z, 4-all directions 
   EPSILON=  1.0000000 bulk dielectric constant

 Exchange correlation treatment:
   GGA     =    PE    GGA type
   LEXCH   =     8    internal setting for exchange type
   VOSKOWN=      0    Vosko Wilk Nusair interpolation
   LHFCALC =     F    Hartree Fock is set to
   LHFONE  =     F    Hartree Fock one center treatment
   AEXX    =    0.0000 exact exchange contribution

 Linear response parameters
   LEPSILON=     F    determine dielectric tensor
   LRPA    =     F    only Hartree local field effects (RPA)
   LNABLA  =     F    use nabla operator in PAW spheres
   LVEL    =     F    velocity operator in full k-point grid
   LINTERFAST=   F  fast interpolation
   KINTER  =     0    interpolate to denser k-point grid
   CSHIFT  =0.1000    complex shift for real part using Kramers Kronig
   OMEGAMAX=  -1.0    maximum frequency
   DEG_THRESHOLD= 0.2000000E-02 threshold for treating states as degnerate
   RTIME   =    0.100 relaxation time in fs

 Orbital magnetization related:
   ORBITALMAG=     F  switch on orbital magnetization
   LCHIMAG   =     F  perturbation theory with respect to B field
   DQ        =  0.001000  dq finite difference perturbation B field



--------------------------------------------------------------------------------------------------------


 quickmin algorithm: (dynamic with friction)
   using selective dynamics as specified on POSCAR
 charge density and potential will be updated during run
 spin polarized calculation
 Variant of blocked Davidson
 Davidson routine will perform the subspace rotation
 perform sub-space diagonalisation
    after iterative eigenvector-optimisation
 modified Broyden-mixing scheme, WC =      100.0
 initial mixing is a Kerker type mixing with AMIX =  0.4000 and BMIX =      1.0000
 Hartree-type preconditioning will be used
 using additional bands           59
 real space projection scheme for non local part
 use partial core corrections
 calculate Harris-corrections to forces 
   (improved forces if not selfconsistent)
 use gradient corrections 
 use of overlap-Matrix (Vanderbilt PP)
 Methfessel and Paxton  Order N= 2 SIGMA  =   0.20


--------------------------------------------------------------------------------------------------------


  energy-cutoff  :      400.00
  volume of cell :     1526.12
      direct lattice vectors                 reciprocal lattice vectors
     8.559999890  0.000000000  0.000000000     0.116822431  0.000000000  0.000000000
     0.000000000  8.019998610  0.000000000     0.000000000  0.124688301  0.000000000
     0.000000000  0.000000000 22.230000000     0.000000000  0.000000000  0.044984256

  length of vectors
     8.559999890  8.019998610 22.230000000     0.116822431  0.124688301  0.044984256


 
 k-points in units of 2pi/SCALE and weight:  Automatic mesh                         
   0.00000000  0.00000000  0.00000000       0.111
   0.09618380  0.00000000  0.00000000       0.222
   0.00000000  0.10266003  0.00000000       0.222
   0.09618380  0.10266003  0.00000000       0.222
  -0.09618380  0.10266003  0.00000000       0.222
 
 k-points in reciprocal lattice and weights:  Automatic mesh                         
   0.00000000  0.00000000  0.00000000       0.111
   0.33333333  0.00000000  0.00000000       0.222
   0.00000000  0.33333333  0.00000000       0.222
   0.33333333  0.33333333  0.00000000       0.222
  -0.33333333  0.33333333  0.00000000       0.222
 
 position of ions in fractional coordinates (direct lattice) 
   0.49999899  0.49999954  0.00000000
   0.66670668  0.74999931  0.00000000
   0.49999899  0.00000000  0.00000000
   0.66670668  0.25000008  0.00000000
   0.00000000  0.49999954  0.00000000
   0.16670567  0.74999931  0.00000000
   0.00000000  0.00000000  0.00000000
   0.16670567  0.25000008  0.00000000
   0.74999993  0.49999954  0.05555556
   0.91670473  0.74999931  0.05555556
   0.74999993  0.00000000  0.05555556
   0.91670473  0.25000008  0.05555556
   0.25000007  0.49999954  0.05555556
   0.41670574  0.74999931  0.05555556
   0.25000007  0.00000000  0.05555556
   0.41670574  0.25000008  0.05555556
   0.50293787  0.50054013  0.11157868
   0.66206890  0.75092111  0.11172108
   0.49653016  0.99791337  0.11191735
   0.66460899  0.24877724  0.11240448
   0.00419620  0.50098968  0.11227439
   0.16779854  0.75218568  0.11102770
   0.00391423  0.99953545  0.11182328
   0.16616588  0.24892174  0.11176662
   0.75730436  0.50017212  0.16245029
   0.90866737  0.74986416  0.16208519
   0.75725886  0.99973373  0.16173188
   0.91056103  0.25005676  0.16245646
   0.25719975  0.49924155  0.16253676
   0.41431631  0.74405480  0.16829340
   0.25090801  0.00472498  0.16830588
   0.41369978  0.25017078  0.16227611
   0.24360750  0.69629227  0.30813315
   0.33887727  0.80052205  0.26441425
   0.50759141  0.82619224  0.28329674
   0.26219438  0.93772474  0.24686627
   0.12787340  0.66948060  0.28916205
   0.22827902  0.76916435  0.34980104
   0.30268522  0.57851810  0.31895867
   0.32719803  0.63819523  0.21911796
   0.50744902  0.88611932  0.32810380
   0.57138657  0.70771929  0.28639314
   0.56926896  0.90967617  0.25191518
 
 position of ions in cartesian coordinates  (Angst):
   4.27999130  4.00999560  0.00000000
   5.70700910  6.01499340  0.00000000
   4.27999130  0.00000000  0.00000000
   5.70700910  2.00500027  0.00000000
   0.00000000  4.00999560  0.00000000
   1.42700051  6.01499340  0.00000000
   0.00000000  0.00000000  0.00000000
   1.42700051  2.00500027  0.00000000
   6.41999930  4.00999560  1.23500000
   7.84699240  6.01499340  1.23500000
   6.41999930  0.00000000  1.23500000
   7.84699240  2.00500027  1.23500000
   2.14000059  4.00999560  1.23500000
   3.56700110  6.01499340  1.23500000
   2.14000059  0.00000000  1.23500000
   3.56700110  2.00500027  1.23500000
   4.30514808  4.01433118  2.48039415
   5.66730968  6.02238628  2.48355961
   4.25029811  8.00326384  2.48792273
   5.68905287  1.99519315  2.49875153
   0.03591948  4.01793655  2.49585968
   1.43635550  6.03252813  2.46814581
   0.03350580  8.01627291  2.48583149
   1.42237992  1.99635204  2.48457185
   6.48252527  4.01137975  3.61126999
   7.77819258  6.01390949  3.60315371
   6.48213578  8.01786316  3.59529967
   7.79440234  2.00545491  3.61140702
   2.20162979  4.00391653  3.61319226
   3.54654759  5.96731846  3.74116229
   2.14777250  0.03789431  3.74143980
   3.54127011  2.00636927  3.60739786
   2.08528020  5.58426300  6.84980003
   2.90078941  6.42018571  5.87792876
   4.34498242  6.62606058  6.29768661
   2.24438388  7.52055109  5.48783723
   1.09459631  5.36923347  6.42807244
   1.95406837  6.16869700  7.77607721
   2.59098543  4.63971439  7.09045115
   2.80081507  5.11832488  4.87099233
   4.34376360  7.10667570  7.29374754
   4.89106894  5.67590776  6.36651941
   4.87294220  7.29560160  5.60007453
 


--------------------------------------------------------------------------------------------------------


 k-point  1 :   0.0000 0.0000 0.0000  plane waves:   27673
 k-point  2 :   0.3333 0.0000 0.0000  plane waves:   27720
 k-point  3 :   0.0000 0.3333 0.0000  plane waves:   27710
 k-point  4 :   0.3333 0.3333 0.0000  plane waves:   27742
 k-point  5 :  -0.3333 0.3333 0.0000  plane waves:   27742

 maximum and minimum number of plane-waves per node :     27742    27673

 maximum number of plane-waves:     27742
 maximum index in each direction: 
   IXMAX=   14   IYMAX=   13   IZMAX=   36
   IXMIN=  -14   IYMIN=  -13   IZMIN=  -36

 WARNING: aliasing errors must be expected set NGX to  58 to avoid them
 WARNING: aliasing errors must be expected set NGY to  54 to avoid them
 WARNING: aliasing errors must be expected set NGZ to 146 to avoid them
 aliasing errors are usually negligible using standard VASP settings
 and one can safely disregard these warnings

 serial   3D FFT for wavefunctions
 parallel 3D FFT for charge:
    minimum data exchange during FFTs selected (reduces bandwidth)


 total amount of memory used by VASP on root node   203285. kBytes
========================================================================

   base      :      30000. kBytes
   nonlr-proj:       7758. kBytes
   fftplans  :       7367. kBytes
   grid      :      34170. kBytes
   one-center:       1337. kBytes
   wavefun   :     122653. kBytes
 
     INWAV:  cpu time    0.00: real time    0.00
 Broyden mixing: mesh for mixing (old mesh)
   NGX = 27   NGY = 27   NGZ = 73
  (NGX  = 84   NGY  = 80   NGZ  =224)
  gives a total of  53217 points

 initial charge density was supplied:
 charge density of overlapping atoms calculated
 number of electron     313.0000000 magnetization      52.1600000
 keeping initial charge density in first step


--------------------------------------------------------------------------------------------------------


 Maximum index for non-local projection operator         1316
 Maximum index for augmentation-charges          781 (set IRDMAX)


--------------------------------------------------------------------------------------------------------


 First call to EWALD:  gamma=   0.154
 Maximum number of real-space cells 4x 4x 2
 Maximum number of reciprocal cells 2x 2x 5

 FEWALD executed in parallel
    FEWALD:  cpu time    0.00: real time    0.00


----------------------------------------- Iteration    1(   1)  ---------------------------------------


    POTLOK:  cpu time    0.34: real time    0.34
    SETDIJ:  cpu time    0.04: real time    0.04
     EDDAV:  cpu time   21.08: real time   21.09
       DOS:  cpu time    0.00: real time    0.00
    --------------------------------------------
      LOOP:  cpu time   21.46: real time   21.47

 eigenvalue-minimisations  :  4320
 total energy-change (2. order) : 0.2192324E+04  (-0.1102388E+05)
 number of electron     313.0000000 magnetization      52.1600000
 augmentation part      313.0000000 magnetization      52.1600000

 Free energy of the ion-electron system (eV)
  ---------------------------------------------------
  alpha Z        PSCENC =       329.76814779
  Ewald energy   TEWEN  =    106189.24227101
  -Hartree energ DENC   =   -131477.95987856
  -exchange      EXHF   =         0.00000000
  -V(xc)+E(xc)   XCENC  =       614.96691033
  PAW double counting   =     23749.85691234   -25449.61764622
  entropy T*S    EENTRO =        -0.00390084
  eigenvalues    EBANDS =      1247.62818862
  atomic energy  EATOM  =     26988.44278752
  Solvation contrib.  Ediel  =         0.00000000
  ---------------------------------------------------
  free energy    TOTEN  =      2192.32379198 eV

  energy without entropy =     2192.32769283  energy(sigma->0) =     2192.32476719


--------------------------------------------------------------------------------------------------------




----------------------------------------- Iteration    1(   2)  ---------------------------------------


     EDDAV:  cpu time   20.77: real time   20.77
       DOS:  cpu time    0.00: real time    0.00
    --------------------------------------------
      LOOP:  cpu time   20.78: real time   20.78

 eigenvalue-minimisations  :  4400
 total energy-change (2. order) :-0.2240437E+04  (-0.2098889E+04)
 number of electron     313.0000000 magnetization      52.1600000
 augmentation part      313.0000000 magnetization      52.1600000

 Free energy of the ion-electron system (eV)
  ---------------------------------------------------
  alpha Z        PSCENC =       329.76814779
  Ewald energy   TEWEN  =    106189.24227101
  -Hartree energ DENC   =   -131477.95987856
  -exchange      EXHF   =         0.00000000
  -V(xc)+E(xc)   XCENC  =       614.96691033
  PAW double counting   =     23749.85691234   -25449.61764622
  entropy T*S    EENTRO =         0.01383650
  eigenvalues    EBANDS =      -992.82619790
  atomic energy  EATOM  =     26988.44278752
  Solvation contrib.  Ediel  =         0.00000000
  ---------------------------------------------------
  free energy    TOTEN  =       -48.11285719 eV

  energy without entropy =      -48.12669369  energy(sigma->0) =      -48.11631631


--------------------------------------------------------------------------------------------------------




----------------------------------------- Iteration    1(   3)  ---------------------------------------


     EDDAV:  cpu time   27.89: real time   27.89
       DOS:  cpu time    0.00: real time    0.00
    --------------------------------------------
      LOOP:  cpu time   27.90: real time   27.90

 eigenvalue-minimisations  :  5768
 total energy-change (2. order) :-0.2342805E+03  (-0.2132200E+03)
 number of electron     313.0000000 magnetization      52.1600000
 augmentation part      313.0000000 magnetization      52.1600000

 Free energy of the ion-electron system (eV)
  ---------------------------------------------------
  alpha Z        PSCENC =       329.76814779
  Ewald energy   TEWEN  =    106189.24227101
  -Hartree energ DENC   =   -131477.95987856
  -exchange      EXHF   =         0.00000000
  -V(xc)+E(xc)   XCENC  =       614.96691033
  PAW double counting   =     23749.85691234   -25449.61764622
  entropy T*S    EENTRO =        -0.02314032
  eigenvalues    EBANDS =     -1227.06968756
  atomic energy  EATOM  =     26988.44278752
  Solvation contrib.  Ediel  =         0.00000000
  ---------------------------------------------------
  free energy    TOTEN  =      -282.39332367 eV

  energy without entropy =     -282.37018335  energy(sigma->0) =     -282.38753859


--------------------------------------------------------------------------------------------------------




----------------------------------------- Iteration    1(   4)  ---------------------------------------


     EDDAV:  cpu time   26.40: real time   26.40
       DOS:  cpu time    0.00: real time    0.00
    --------------------------------------------
      LOOP:  cpu time   26.40: real time   26.40

 eigenvalue-minimisations  :  5496
 total energy-change (2. order) :-0.1742401E+02  (-0.1685220E+02)
 number of electron     313.0000000 magnetization      52.1600000
 augmentation part      313.0000000 magnetization      52.1600000

 Free energy of the ion-electron system (eV)
  ---------------------------------------------------
  alpha Z        PSCENC =       329.76814779
  Ewald energy   TEWEN  =    106189.24227101
  -Hartree energ DENC   =   -131477.95987856
  -exchange      EXHF   =         0.00000000
  -V(xc)+E(xc)   XCENC  =       614.96691033
  PAW double counting   =     23749.85691234   -25449.61764622
  entropy T*S    EENTRO =        -0.03333663
  eigenvalues    EBANDS =     -1244.48349883
  atomic energy  EATOM  =     26988.44278752
  Solvation contrib.  Ediel  =         0.00000000
  ---------------------------------------------------
  free energy    TOTEN  =      -299.81733126 eV

  energy without entropy =     -299.78399462  energy(sigma->0) =     -299.80899710


--------------------------------------------------------------------------------------------------------




----------------------------------------- Iteration    1(   5)  ---------------------------------------


     EDDAV:  cpu time   25.84: real time   25.84
       DOS:  cpu time    0.00: real time    0.00
    CHARGE:  cpu time    0.86: real time    0.85
    MIXING:  cpu time    0.00: real time    0.01
    --------------------------------------------
      LOOP:  cpu time   26.70: real time   26.70

 eigenvalue-minimisations  :  5720
 total energy-change (2. order) :-0.5758283E+00  (-0.5736914E+00)
 number of electron     313.0000714 magnetization      52.6509008
 augmentation part      150.0706411 magnetization      38.9123874

 Broyden mixing:
  rms(total) = 0.61471E+01    rms(broyden)= 0.61467E+01
  rms(prec ) = 0.64563E+01
  weight for this iteration     100.00

 Free energy of the ion-electron system (eV)
  ---------------------------------------------------
  alpha Z        PSCENC =       329.76814779
  Ewald energy   TEWEN  =    106189.24227101
  -Hartree energ DENC   =   -131477.95987856
  -exchange      EXHF   =         0.00000000
  -V(xc)+E(xc)   XCENC  =       614.96691033
  PAW double counting   =     23749.85691234   -25449.61764622
  entropy T*S    EENTRO =        -0.03475011
  eigenvalues    EBANDS =     -1245.05791363
  atomic energy  EATOM  =     26988.44278752
  Solvation contrib.  Ediel  =         0.00000000
  ---------------------------------------------------
  free energy    TOTEN  =      -300.39315953 eV

  energy without entropy =     -300.35840941  energy(sigma->0) =     -300.38447200


--------------------------------------------------------------------------------------------------------




----------------------------------------- Iteration    1(   6)  ---------------------------------------


    POTLOK:  cpu time    0.32: real time    0.32
    SETDIJ:  cpu time    0.04: real time    0.04
     EDDAV:  cpu time   25.34: real time   25.34
       DOS:  cpu time    0.00: real time    0.00
    CHARGE:  cpu time    1.09: real time    1.09
    MIXING:  cpu time    0.00: real time    0.01
    --------------------------------------------
      LOOP:  cpu time   26.80: real time   26.80

 eigenvalue-minimisations  :  5200
 total energy-change (2. order) :-0.5708198E+02  (-0.3458050E+02)
 number of electron     313.0000718 magnetization      52.0341619
 augmentation part      168.5926477 magnetization      47.5443139

 Broyden mixing:
  rms(total) = 0.13054E+02    rms(broyden)= 0.13053E+02
  rms(prec ) = 0.13995E+02
  weight for this iteration     100.00

 eigenvalues of (default mixing * dielectric matrix)
  average eigenvalue GAMMA=   0.2536
  0.2536

 Free energy of the ion-electron system (eV)
  ---------------------------------------------------
  alpha Z        PSCENC =       329.76814779
  Ewald energy   TEWEN  =    106189.24227101
  -Hartree energ DENC   =   -131144.67630077
  -exchange      EXHF   =         0.00000000
  -V(xc)+E(xc)   XCENC  =       600.95554830
  PAW double counting   =     26015.29466379   -27560.13419978
  entropy T*S    EENTRO =         0.03616329
  eigenvalues    EBANDS =     -1776.40421998
  atomic energy  EATOM  =     26988.44278752
  Solvation contrib.  Ediel  =         0.00000000
  ---------------------------------------------------
  free energy    TOTEN  =      -357.47513881 eV

  energy without entropy =     -357.51130211  energy(sigma->0) =     -357.48417964


--------------------------------------------------------------------------------------------------------




----------------------------------------- Iteration    1(   7)  ---------------------------------------


    POTLOK:  cpu time    0.35: real time    0.35
    SETDIJ:  cpu time    0.04: real time    0.04
     EDDAV:  cpu time   24.47: real time   24.47
       DOS:  cpu time    0.00: real time    0.00
    CHARGE:  cpu time    1.10: real time    1.09
    MIXING:  cpu time    0.01: real time    0.01
    --------------------------------------------
      LOOP:  cpu time   25.97: real time   25.97

 eigenvalue-minimisations  :  4816
 total energy-change (2. order) : 0.6422896E+02  (-0.2486534E+02)
 number of electron     313.0000832 magnetization      51.7593535
 augmentation part      174.4428360 magnetization      41.5760633

 Broyden mixing:
  rms(total) = 0.71733E+01    rms(broyden)= 0.71725E+01
  rms(prec ) = 0.77618E+01
  weight for this iteration     100.00

 eigenvalues of (default mixing * dielectric matrix)
  average eigenvalue GAMMA=   0.3609
  0.5711  0.1508

 Free energy of the ion-electron system (eV)
  ---------------------------------------------------
  alpha Z        PSCENC =       329.76814779
  Ewald energy   TEWEN  =    106189.24227101
  -Hartree energ DENC   =   -131072.75074686
  -exchange      EXHF   =         0.00000000
  -V(xc)+E(xc)   XCENC  =       595.81737650
  PAW double counting   =     26501.04400115   -28070.94937671
  entropy T*S    EENTRO =         0.01521725
  eigenvalues    EBANDS =     -1753.87585542
  atomic energy  EATOM  =     26988.44278752
  Solvation contrib.  Ediel  =         0.00000000
  ---------------------------------------------------
  free energy    TOTEN  =      -293.24617776 eV

  energy without entropy =     -293.26139502  energy(sigma->0) =     -293.24998208


--------------------------------------------------------------------------------------------------------




----------------------------------------- Iteration    1(   8)  ---------------------------------------


    POTLOK:  cpu time    0.35: real time    0.35
    SETDIJ:  cpu time    0.04: real time    0.04
     EDDAV:  cpu time   23.28: real time   23.28
       DOS:  cpu time    0.00: real time    0.00
    CHARGE:  cpu time    1.00: real time    1.00
    MIXING:  cpu time    0.01: real time    0.01
    --------------------------------------------
      LOOP:  cpu time   24.69: real time   24.69

 eigenvalue-minimisations  :  4944
 total energy-change (2. order) : 0.1381080E+02  (-0.8681938E+01)
 number of electron     313.0000752 magnetization      51.4756666
 augmentation part      168.2438834 magnetization      44.1581617

 Broyden mixing:
  rms(total) = 0.68111E+01    rms(broyden)= 0.68106E+01
  rms(prec ) = 0.75087E+01
  weight for this iteration     100.00

 eigenvalues of (default mixing * dielectric matrix)
  average eigenvalue GAMMA=   0.3663
  0.6930  0.2577  0.1482

 Free energy of the ion-electron system (eV)
  ---------------------------------------------------
  alpha Z        PSCENC =       329.76814779
  Ewald energy   TEWEN  =    106189.24227101
  -Hartree energ DENC   =   -131339.62520373
  -exchange      EXHF   =         0.00000000
  -V(xc)+E(xc)   XCENC  =       600.44360591
  PAW double counting   =     27599.86641889   -29244.77663522
  entropy T*S    EENTRO =         0.00075948
  eigenvalues    EBANDS =     -1402.79753180
  atomic energy  EATOM  =     26988.44278752
  Solvation contrib.  Ediel  =         0.00000000
  ---------------------------------------------------
  free energy    TOTEN  =      -279.43538015 eV

  energy without entropy =     -279.43613964  energy(sigma->0) =     -279.43557002


--------------------------------------------------------------------------------------------------------




----------------------------------------- Iteration    1(   9)  ---------------------------------------


    POTLOK:  cpu time    0.34: real time    0.33
    SETDIJ:  cpu time    0.04: real time    0.04
     EDDAV:  cpu time   27.74: real time   27.74
       DOS:  cpu time    0.00: real time    0.00
    CHARGE:  cpu time    1.11: real time    1.11
    MIXING:  cpu time    0.01: real time    0.01
    --------------------------------------------
      LOOP:  cpu time   29.24: real time   29.24

 eigenvalue-minimisations  :  6096
 total energy-change (2. order) :-0.4972096E+01  (-0.7134804E+01)
 number of electron     313.0000810 magnetization      51.1334937
 augmentation part      165.6344591 magnetization      43.2276539

 Broyden mixing:
  rms(total) = 0.66450E+01    rms(broyden)= 0.66444E+01
  rms(prec ) = 0.75472E+01
  weight for this iteration     100.00

 eigenvalues of (default mixing * dielectric matrix)
  average eigenvalue GAMMA=   0.3900
  0.7084  0.5817  0.1349  0.1349

 Free energy of the ion-electron system (eV)
  ---------------------------------------------------
  alpha Z        PSCENC =       329.76814779
  Ewald energy   TEWEN  =    106189.24227101
  -Hartree energ DENC   =   -131415.41870547
  -exchange      EXHF   =         0.00000000
  -V(xc)+E(xc)   XCENC  =       601.67211620
  PAW double counting   =     28050.34135938   -29720.49301920
  entropy T*S    EENTRO =        -0.00945514
  eigenvalues    EBANDS =     -1307.95297796
  atomic energy  EATOM  =     26988.44278752
  Solvation contrib.  Ediel  =         0.00000000
  ---------------------------------------------------
  free energy    TOTEN  =      -284.40747587 eV

  energy without entropy =     -284.39802073  energy(sigma->0) =     -284.40511208


--------------------------------------------------------------------------------------------------------




----------------------------------------- Iteration    1(  10)  ---------------------------------------


    POTLOK:  cpu time    0.36: real time    0.36
    SETDIJ:  cpu time    0.04: real time    0.04
     EDDAV:  cpu time   25.44: real time   25.44
       DOS:  cpu time    0.00: real time    0.00
    CHARGE:  cpu time    1.10: real time    1.09
    MIXING:  cpu time    0.01: real time    0.01
    --------------------------------------------
      LOOP:  cpu time   26.94: real time   26.94

 eigenvalue-minimisations  :  5056
 total energy-change (2. order) :-0.1167170E+02  (-0.5946160E+01)
 number of electron     313.0000649 magnetization      50.9526610
 augmentation part      164.2186606 magnetization      42.2440788

 Broyden mixing:
  rms(total) = 0.67938E+01    rms(broyden)= 0.67933E+01
  rms(prec ) = 0.78306E+01
  weight for this iteration     100.00

 eigenvalues of (default mixing * dielectric matrix)
  average eigenvalue GAMMA=   0.3468
  0.6947  0.6619  0.1487  0.1487  0.0796

 Free energy of the ion-electron system (eV)
  ---------------------------------------------------
  alpha Z        PSCENC =       329.76814779
  Ewald energy   TEWEN  =    106189.24227101
  -Hartree energ DENC   =   -131439.56824300
  -exchange      EXHF   =         0.00000000
  -V(xc)+E(xc)   XCENC  =       602.23826550
  PAW double counting   =     28460.11150681   -30144.85865465
  entropy T*S    EENTRO =         0.01029043
  eigenvalues    EBANDS =     -1281.46554725
  atomic energy  EATOM  =     26988.44278752
  Solvation contrib.  Ediel  =         0.00000000
  ---------------------------------------------------
  free energy    TOTEN  =      -296.07917583 eV

  energy without entropy =     -296.08946626  energy(sigma->0) =     -296.08174844


--------------------------------------------------------------------------------------------------------




----------------------------------------- Iteration    1(  11)  ---------------------------------------


    POTLOK:  cpu time    0.35: real time    0.35
    SETDIJ:  cpu time    0.04: real time    0.04
     EDDAV:  cpu time   22.02: real time   22.03
       DOS:  cpu time    0.00: real time    0.00
    CHARGE:  cpu time    0.90: real time    0.90
    MIXING:  cpu time    0.01: real time    0.01
    --------------------------------------------
      LOOP:  cpu time   23.33: real time   23.33

 eigenvalue-minimisations  :  4640
 total energy-change (2. order) : 0.2445824E+02  (-0.2691534E+01)
 number of electron     313.0000768 magnetization      51.0181529
 augmentation part      164.7327697 magnetization      41.0438767

 Broyden mixing:
  rms(total) = 0.35641E+01    rms(broyden)= 0.35638E+01
  rms(prec ) = 0.39199E+01
  weight for this iteration     100.00

 eigenvalues of (default mixing * dielectric matrix)
  average eigenvalue GAMMA=   0.3307
  0.9225  0.4363  0.1909  0.1909  0.1448  0.0991

 Free energy of the ion-electron system (eV)
  ---------------------------------------------------
  alpha Z        PSCENC =       329.76814779
  Ewald energy   TEWEN  =    106189.24227101
  -Hartree energ DENC   =   -131441.30717477
  -exchange      EXHF   =         0.00000000
  -V(xc)+E(xc)   XCENC  =       602.55635011
  PAW double counting   =     28669.16651317   -30358.62261836
  entropy T*S    EENTRO =         0.00592931
  eigenvalues    EBANDS =     -1250.87314071
  atomic energy  EATOM  =     26988.44278752
  Solvation contrib.  Ediel  =         0.00000000
  ---------------------------------------------------
  free energy    TOTEN  =      -271.62093492 eV

  energy without entropy =     -271.62686424  energy(sigma->0) =     -271.62241725


--------------------------------------------------------------------------------------------------------




----------------------------------------- Iteration    1(  12)  ---------------------------------------


    POTLOK:  cpu time    0.32: real time    0.32
    SETDIJ:  cpu time    0.04: real time    0.04
     EDDAV:  cpu time   24.12: real time   24.12
       DOS:  cpu time    0.00: real time    0.00
    CHARGE:  cpu time    1.00: real time    1.00
    MIXING:  cpu time    0.01: real time    0.01
    --------------------------------------------
      LOOP:  cpu time   25.49: real time   25.49

 eigenvalue-minimisations  :  4816
 total energy-change (2. order) : 0.5195855E+01  (-0.1331997E+01)
 number of electron     313.0000710 magnetization      51.0920336
 augmentation part      164.4419999 magnetization      42.3342236

 Broyden mixing:
  rms(total) = 0.36143E+01    rms(broyden)= 0.36141E+01
  rms(prec ) = 0.40998E+01
  weight for this iteration     100.00

 eigenvalues of (default mixing * dielectric matrix)
  average eigenvalue GAMMA=   0.3536
  1.0900  0.3882  0.3882  0.2490  0.1458  0.1265  0.0878

 Free energy of the ion-electron system (eV)
  ---------------------------------------------------
  alpha Z        PSCENC =       329.76814779
  Ewald energy   TEWEN  =    106189.24227101
  -Hartree energ DENC   =   -131451.84966718
  -exchange      EXHF   =         0.00000000
  -V(xc)+E(xc)   XCENC  =       603.41327405
  PAW double counting   =     28818.28629003   -30510.79667197
  entropy T*S    EENTRO =        -0.00855736
  eigenvalues    EBANDS =     -1232.92295401
  atomic energy  EATOM  =     26988.44278752
  Solvation contrib.  Ediel  =         0.00000000
  ---------------------------------------------------
  free energy    TOTEN  =      -266.42508012 eV

  energy without entropy =     -266.41652276  energy(sigma->0) =     -266.42294078


--------------------------------------------------------------------------------------------------------




----------------------------------------- Iteration    1(  13)  ---------------------------------------


    POTLOK:  cpu time    0.34: real time    0.34
    SETDIJ:  cpu time    0.04: real time    0.04
     EDDAV:  cpu time   28.39: real time   28.39
       DOS:  cpu time    0.00: real time    0.00
    CHARGE:  cpu time    1.00: real time    1.00
    MIXING:  cpu time    0.01: real time    0.01
    --------------------------------------------
      LOOP:  cpu time   29.78: real time   29.78

 eigenvalue-minimisations  :  6440
 total energy-change (2. order) : 0.1044097E+01  (-0.2553785E+01)
 number of electron     313.0000745 magnetization      51.1406990
 augmentation part      164.7325752 magnetization      42.2408382

 Broyden mixing:
  rms(total) = 0.29830E+01    rms(broyden)= 0.29828E+01
  rms(prec ) = 0.32925E+01
  weight for this iteration     100.00

 eigenvalues of (default mixing * dielectric matrix)
  average eigenvalue GAMMA=   0.3407
  1.1480  0.4221  0.4221  0.2279  0.1580  0.1580  0.1036  0.0861

 Free energy of the ion-electron system (eV)
  ---------------------------------------------------
  alpha Z        PSCENC =       329.76814779
  Ewald energy   TEWEN  =    106189.24227101
  -Hartree energ DENC   =   -131461.29462716
  -exchange      EXHF   =         0.00000000
  -V(xc)+E(xc)   XCENC  =       604.06732357
  PAW double counting   =     29017.87609610   -30712.43697993
  entropy T*S    EENTRO =        -0.02487845
  eigenvalues    EBANDS =     -1221.02112345
  atomic energy  EATOM  =     26988.44278752
  Solvation contrib.  Ediel  =         0.00000000
  ---------------------------------------------------
  free energy    TOTEN  =      -265.38098299 eV

  energy without entropy =     -265.35610454  energy(sigma->0) =     -265.37476338


--------------------------------------------------------------------------------------------------------




----------------------------------------- Iteration    1(  14)  ---------------------------------------


    POTLOK:  cpu time    0.34: real time    0.33
    SETDIJ:  cpu time    0.04: real time    0.04
     EDDAV:  cpu time   23.76: real time   23.76
       DOS:  cpu time    0.00: real time    0.00
    CHARGE:  cpu time    1.00: real time    1.00
    MIXING:  cpu time    0.01: real time    0.01
    --------------------------------------------
      LOOP:  cpu time   25.15: real time   25.15

 eigenvalue-minimisations  :  5232
 total energy-change (2. order) : 0.3413562E+01  (-0.5909794E+00)
 number of electron     313.0000767 magnetization      51.2199043
 augmentation part      164.4738595 magnetization      42.5753089

 Broyden mixing:
  rms(total) = 0.14137E+01    rms(broyden)= 0.14134E+01
  rms(prec ) = 0.14781E+01
  weight for this iteration     100.00

 eigenvalues of (default mixing * dielectric matrix)
  average eigenvalue GAMMA=   0.3674
  1.2600  0.5110  0.5110  0.2765  0.2765  0.1593  0.1123  0.1123  0.0878

 Free energy of the ion-electron system (eV)
  ---------------------------------------------------
  alpha Z        PSCENC =       329.76814779
  Ewald energy   TEWEN  =    106189.24227101
  -Hartree energ DENC   =   -131468.24412045
  -exchange      EXHF   =         0.00000000
  -V(xc)+E(xc)   XCENC  =       604.33653523
  PAW double counting   =     29104.64961806   -30800.36612049
  entropy T*S    EENTRO =        -0.05231363
  eigenvalues    EBANDS =     -1209.74422598
  atomic energy  EATOM  =     26988.44278752
  Solvation contrib.  Ediel  =         0.00000000
  ---------------------------------------------------
  free energy    TOTEN  =      -261.96742093 eV

  energy without entropy =     -261.91510730  energy(sigma->0) =     -261.95434252


--------------------------------------------------------------------------------------------------------




----------------------------------------- Iteration    1(  15)  ---------------------------------------


    POTLOK:  cpu time    0.34: real time    0.33
    SETDIJ:  cpu time    0.04: real time    0.04
     EDDAV:  cpu time   25.21: real time   25.21
       DOS:  cpu time    0.00: real time    0.00
    CHARGE:  cpu time    1.02: real time    1.02
    MIXING:  cpu time    0.01: real time    0.01
    --------------------------------------------
      LOOP:  cpu time   26.62: real time   26.62

 eigenvalue-minimisations  :  5616
 total energy-change (2. order) :-0.1695668E+01  (-0.4102155E+00)
 number of electron     313.0000760 magnetization      51.3072875
 augmentation part      164.9164458 magnetization      42.8047606

 Broyden mixing:
  rms(total) = 0.21668E+01    rms(broyden)= 0.21667E+01
  rms(prec ) = 0.23945E+01
  weight for this iteration     100.00

 eigenvalues of (default mixing * dielectric matrix)
  average eigenvalue GAMMA=   0.3608
  1.3394  0.5537  0.5537  0.2855  0.2855  0.1593  0.1206  0.1206  0.0866  0.1036

 Free energy of the ion-electron system (eV)
  ---------------------------------------------------
  alpha Z        PSCENC =       329.76814779
  Ewald energy   TEWEN  =    106189.24227101
  -Hartree energ DENC   =   -131467.51421822
  -exchange      EXHF   =         0.00000000
  -V(xc)+E(xc)   XCENC  =       604.21592935
  PAW double counting   =     29249.36958101   -30945.58357380
  entropy T*S    EENTRO =        -0.03561476
  eigenvalues    EBANDS =     -1211.56839907
  atomic energy  EATOM  =     26988.44278752
  Solvation contrib.  Ediel  =         0.00000000
  ---------------------------------------------------
  free energy    TOTEN  =      -263.66308916 eV

  energy without entropy =     -263.62747441  energy(sigma->0) =     -263.65418547


--------------------------------------------------------------------------------------------------------




----------------------------------------- Iteration    1(  16)  ---------------------------------------


    POTLOK:  cpu time    0.34: real time    0.34
    SETDIJ:  cpu time    0.04: real time    0.04
     EDDAV:  cpu time   21.78: real time   21.78
       DOS:  cpu time    0.00: real time    0.00
    CHARGE:  cpu time    1.01: real time    1.01
    MIXING:  cpu time    0.01: real time    0.01
    --------------------------------------------
      LOOP:  cpu time   23.18: real time   23.18

 eigenvalue-minimisations  :  4752
 total energy-change (2. order) : 0.1257792E+01  (-0.2069275E+00)
 number of electron     313.0000772 magnetization      51.3991693
 augmentation part      164.9624170 magnetization      43.1516826

 Broyden mixing:
  rms(total) = 0.11060E+01    rms(broyden)= 0.11058E+01
  rms(prec ) = 0.11487E+01
  weight for this iteration     100.00

 eigenvalues of (default mixing * dielectric matrix)
  average eigenvalue GAMMA=   0.3723
  1.3696  0.6229  0.6229  0.3297  0.3297  0.2318  0.1472  0.1472  0.1117  0.0897
  0.0935

 Free energy of the ion-electron system (eV)
  ---------------------------------------------------
  alpha Z        PSCENC =       329.76814779
  Ewald energy   TEWEN  =    106189.24227101
  -Hartree energ DENC   =   -131472.95747962
  -exchange      EXHF   =         0.00000000
  -V(xc)+E(xc)   XCENC  =       604.26483124
  PAW double counting   =     29374.59057562   -31071.69714114
  entropy T*S    EENTRO =        -0.05310738
  eigenvalues    EBANDS =     -1204.00618233
  atomic energy  EATOM  =     26988.44278752
  Solvation contrib.  Ediel  =         0.00000000
  ---------------------------------------------------
  free energy    TOTEN  =      -262.40529728 eV

  energy without entropy =     -262.35218990  energy(sigma->0) =     -262.39202043


--------------------------------------------------------------------------------------------------------




----------------------------------------- Iteration    1(  17)  ---------------------------------------


    POTLOK:  cpu time    0.33: real time    0.33
    SETDIJ:  cpu time    0.04: real time    0.04
     EDDAV:  cpu time   23.33: real time   23.33
       DOS:  cpu time    0.00: real time    0.00
    CHARGE:  cpu time    1.02: real time    1.01
    MIXING:  cpu time    0.01: real time    0.01
    --------------------------------------------
      LOOP:  cpu time   24.74: real time   24.74

 eigenvalue-minimisations  :  5208
 total energy-change (2. order) :-0.3410847E+00  (-0.9594172E-01)
 number of electron     313.0000766 magnetization      51.7229718
 augmentation part      165.1239016 magnetization      43.6498438

 Broyden mixing:
  rms(total) = 0.12103E+01    rms(broyden)= 0.12102E+01
  rms(prec ) = 0.12903E+01
  weight for this iteration     100.00

 eigenvalues of (default mixing * dielectric matrix)
  average eigenvalue GAMMA=   0.4113
  1.4902  0.8131  0.8131  0.4294  0.4294  0.2587  0.1443  0.1443  0.1148  0.1148
  0.0884  0.0951

 Free energy of the ion-electron system (eV)
  ---------------------------------------------------
  alpha Z        PSCENC =       329.76814779
  Ewald energy   TEWEN  =    106189.24227101
  -Hartree energ DENC   =   -131478.12115642
  -exchange      EXHF   =         0.00000000
  -V(xc)+E(xc)   XCENC  =       604.32960519
  PAW double counting   =     29440.02689053   -31137.71702334
  entropy T*S    EENTRO =        -0.04018556
  eigenvalues    EBANDS =     -1198.67771866
  atomic energy  EATOM  =     26988.44278752
  Solvation contrib.  Ediel  =         0.00000000
  ---------------------------------------------------
  free energy    TOTEN  =      -262.74638194 eV

  energy without entropy =     -262.70619638  energy(sigma->0) =     -262.73633555


--------------------------------------------------------------------------------------------------------




----------------------------------------- Iteration    1(  18)  ---------------------------------------


    POTLOK:  cpu time    0.33: real time    0.33
    SETDIJ:  cpu time    0.04: real time    0.04
     EDDAV:  cpu time   23.52: real time   23.52
       DOS:  cpu time    0.00: real time    0.00
    CHARGE:  cpu time    1.02: real time    1.03
    MIXING:  cpu time    0.02: real time    0.01
    --------------------------------------------
      LOOP:  cpu time   24.94: real time   24.94

 eigenvalue-minimisations  :  5248
 total energy-change (2. order) :-0.1408412E+00  (-0.9771414E-01)
 number of electron     313.0000765 magnetization      51.9527677
 augmentation part      165.3365282 magnetization      44.3269011

 Broyden mixing:
  rms(total) = 0.81684E+00    rms(broyden)= 0.81676E+00
  rms(prec ) = 0.86040E+00
  weight for this iteration     100.00

 eigenvalues of (default mixing * dielectric matrix)
  average eigenvalue GAMMA=   0.4282
  1.5506  0.9223  0.9223  0.4471  0.4471  0.3229  0.2444  0.1567  0.1288  0.1288
  0.1135  0.0885  0.0933

 Free energy of the ion-electron system (eV)
  ---------------------------------------------------
  alpha Z        PSCENC =       329.76814779
  Ewald energy   TEWEN  =    106189.24227101
  -Hartree energ DENC   =   -131495.24356920
  -exchange      EXHF   =         0.00000000
  -V(xc)+E(xc)   XCENC  =       604.79930693
  PAW double counting   =     29639.18557503   -31338.79966230
  entropy T*S    EENTRO =        -0.03826558
  eigenvalues    EBANDS =     -1180.24381430
  atomic energy  EATOM  =     26988.44278752
  Solvation contrib.  Ediel  =         0.00000000
  ---------------------------------------------------
  free energy    TOTEN  =      -262.88722309 eV

  energy without entropy =     -262.84895751  energy(sigma->0) =     -262.87765670


--------------------------------------------------------------------------------------------------------




----------------------------------------- Iteration    1(  19)  ---------------------------------------


    POTLOK:  cpu time    0.37: real time    0.37
    SETDIJ:  cpu time    0.04: real time    0.04
     EDDAV:  cpu time   25.92: real time   25.92
       DOS:  cpu time    0.00: real time    0.00
    CHARGE:  cpu time    1.16: real time    1.16
    MIXING:  cpu time    0.01: real time    0.01
    --------------------------------------------
      LOOP:  cpu time   27.51: real time   27.51

 eigenvalue-minimisations  :  5136
 total energy-change (2. order) :-0.2665265E+00  (-0.9035243E-01)
 number of electron     313.0000773 magnetization      52.4363924
 augmentation part      165.5748570 magnetization      45.0510464

 Broyden mixing:
  rms(total) = 0.11014E+01    rms(broyden)= 0.11013E+01
  rms(prec ) = 0.11926E+01
  weight for this iteration     100.00

 eigenvalues of (default mixing * dielectric matrix)
  average eigenvalue GAMMA=   0.4614
  1.8147  0.9877  0.9877  0.5668  0.5668  0.4572  0.2589  0.1529  0.1388  0.1177
  0.1177  0.1115  0.0887  0.0929

 Free energy of the ion-electron system (eV)
  ---------------------------------------------------
  alpha Z        PSCENC =       329.76814779
  Ewald energy   TEWEN  =    106189.24227101
  -Hartree energ DENC   =   -131503.15931492
  -exchange      EXHF   =         0.00000000
  -V(xc)+E(xc)   XCENC  =       605.22518844
  PAW double counting   =     29709.91081268   -31409.64306726
  entropy T*S    EENTRO =        -0.02425883
  eigenvalues    EBANDS =     -1172.91631601
  atomic energy  EATOM  =     26988.44278752
  Solvation contrib.  Ediel  =         0.00000000
  ---------------------------------------------------
  free energy    TOTEN  =      -263.15374958 eV

  energy without entropy =     -263.12949075  energy(sigma->0) =     -263.14768487


--------------------------------------------------------------------------------------------------------




----------------------------------------- Iteration    1(  20)  ---------------------------------------


    POTLOK:  cpu time    0.36: real time    0.36
    SETDIJ:  cpu time    0.04: real time    0.04
     EDDAV:  cpu time   24.06: real time   24.06
       DOS:  cpu time    0.00: real time    0.00
    CHARGE:  cpu time    0.89: real time    0.89
    MIXING:  cpu time    0.01: real time    0.01
    --------------------------------------------
      LOOP:  cpu time   25.38: real time   25.38

 eigenvalue-minimisations  :  5216
 total energy-change (2. order) : 0.4867300E+00  (-0.9477584E-01)
 number of electron     313.0000774 magnetization      52.5732040
 augmentation part      165.7733629 magnetization      45.5419717

 Broyden mixing:
  rms(total) = 0.72424E+00    rms(broyden)= 0.72414E+00
  rms(prec ) = 0.77414E+00
  weight for this iteration     100.00

 eigenvalues of (default mixing * dielectric matrix)
  average eigenvalue GAMMA=   0.4501
  1.8664  1.0145  1.0145  0.5732  0.5732  0.4344  0.2705  0.1890  0.1472  0.1472
  0.1191  0.1191  0.0884  0.0938  0.1013

 Free energy of the ion-electron system (eV)
  ---------------------------------------------------
  alpha Z        PSCENC =       329.76814779
  Ewald energy   TEWEN  =    106189.24227101
  -Hartree energ DENC   =   -131519.78773159
  -exchange      EXHF   =         0.00000000
  -V(xc)+E(xc)   XCENC  =       606.37635027
  PAW double counting   =     29798.12785290   -31497.81144683
  entropy T*S    EENTRO =        -0.03752344
  eigenvalues    EBANDS =     -1156.98772725
  atomic energy  EATOM  =     26988.44278752
  Solvation contrib.  Ediel  =         0.00000000
  ---------------------------------------------------
  free energy    TOTEN  =      -262.66701961 eV

  energy without entropy =     -262.62949618  energy(sigma->0) =     -262.65763875


--------------------------------------------------------------------------------------------------------




----------------------------------------- Iteration    1(  21)  ---------------------------------------


    POTLOK:  cpu time    0.32: real time    0.32
    SETDIJ:  cpu time    0.04: real time    0.04
     EDDAV:  cpu time   22.64: real time   22.64
       DOS:  cpu time    0.00: real time    0.00
    CHARGE:  cpu time    1.05: real time    1.05
    MIXING:  cpu time    0.02: real time    0.02
    --------------------------------------------
      LOOP:  cpu time   24.06: real time   24.07

 eigenvalue-minimisations  :  4904
 total energy-change (2. order) : 0.2062019E+00  (-0.4691423E-01)
[...]
     10     Co         -0.033         -0.035          0.931
     11     Co         -0.036         -0.034          0.939
     12     Co         -0.031         -0.032          0.932
     13     Co         -0.037         -0.035          0.937
     14     Co         -0.044         -0.041          0.935
     15     Co         -0.050         -0.043          0.943
     16     Co         -0.035         -0.035          0.931
     17     Co         -0.028         -0.027          0.927
     18     Co         -0.037         -0.031          0.931
     19     Co         -0.034         -0.027          0.940
     20     Co         -0.044         -0.037          0.943
     21     Co         -0.037         -0.035          0.934
     22     Co         -0.013         -0.012          0.936
     23     Co         -0.035         -0.032          0.927
     24     Co         -0.046         -0.039          0.935
     25     Co          0.024          0.030          1.071
     26     Co          0.045          0.043          1.060
     27     Co          0.029          0.036          1.038
     28     Co          0.044          0.035          1.042
     29     Co          0.058          0.054          1.043
     30     Co          0.099          0.082          0.962
     31     Co          0.116          0.100          0.976
     32     Co          0.073          0.061          1.037
     33     C          -0.150         -0.117          0.827
     34     C           0.111          0.077          0.639
     35     C          -0.144         -0.122          0.831
     36     O          -0.246         -0.202          1.061
     37     H           0.056          0.038          0.805
     38     H           0.057          0.046          0.718
     39     H           0.062          0.046          0.740
     40     H          -0.101         -0.075          0.764
     41     H           0.065          0.051          0.720
     42     H           0.060          0.042          0.808
     43     H           0.030          0.016          0.862

  dDsC method for vdW energy calculation
  ---------------------------------------------------------------------------------------------

  Parameters of vdW forcefield:
            C6dDsC            XDM            ALPHAts        RELVOL
            (au)              (au)            (au)                
   ---------------------------------------------------------------
   Co        542.106         11.959         54.174          1.083
   Co        539.507         11.944         53.981          1.080
   Co        541.198         11.953         54.109          1.082
   Co        537.157         11.921         53.849          1.077
   Co        538.166         11.915         53.980          1.080
   Co        542.911         11.986         54.132          1.083
   Co        538.610         11.916         54.017          1.080
   Co        540.501         11.954         54.034          1.081
   Co        325.361          8.297         46.862          0.937
   Co        322.398          8.277         46.550          0.931
   Co        325.967          8.300         46.936          0.939
   Co        323.166          8.285         46.617          0.932
   Co        324.466          8.280         46.829          0.937
   Co        323.945          8.277         46.772          0.935
   Co        327.057          8.286         47.169          0.943
   Co        321.793          8.265         46.529          0.931
   Co        322.221          8.310         46.340          0.927
   Co        324.012          8.314         46.574          0.931
   Co        329.868          8.391         46.981          0.940
   Co        330.953          8.388         47.154          0.943
   Co        327.490          8.383         46.689          0.934
   Co        330.328          8.436         46.797          0.936
   Co        322.612          8.321         46.331          0.927
   Co        326.283          8.337         46.773          0.935
   Co        524.103         11.695         53.558          1.071
   Co        515.028         11.614         52.998          1.060
   Co        487.392         11.218         51.920          1.038
   Co        500.190         11.474         52.096          1.042
   Co        483.857         11.093         52.127          1.043
   Co        398.862          9.912         48.088          0.962
   Co        428.801         10.505         48.779          0.976
   Co        496.198         11.435         51.856          1.037
   C          45.738          5.510          9.920          0.827
   C          29.534          4.603          7.668          0.639
   C          46.377          5.555          9.977          0.831
   O          29.821          6.221          5.729          1.061
   H           6.675          2.202          3.622          0.805
   H           4.561          1.687          3.231          0.718
   H           5.083          1.825          3.329          0.740
   H           6.803          2.364          3.439          0.764
   H           4.600          1.697          3.239          0.720
   H           6.487          2.131          3.638          0.808
   H           8.002          2.466          3.878          0.862

  IVDW =   4
  VDW_RADIUS =    50.000 A
  VDW_S6 aka ATT0 =    13.960
  VDW_SR aka BTT0 =     1.320
  LVDW_ONECELL = F F F

  Number of pair interactions contributing to vdW energy:  325451
  Edisp (eV):   -6.97006
    FORVDW:  cpu time   15.88: real time   15.89

  FORCE on cell =-STRESS in cart. coord.  units (eV):
  Direction    XX          YY          ZZ          XY          YZ          ZX
  --------------------------------------------------------------------------------------
  Alpha Z   329.76815   329.76815   329.76815
  Ewald  121193.20126121859.90029************   -24.27888  -224.46368    -6.75696
  Hartree127386.92832127787.03039************    -3.39089  -134.59700   -10.11801
  E(xc)   -1569.57965 -1569.10779 -1571.80989    -0.05411    -0.25925     0.04144
  Local  ************************254114.27856    20.99417   351.44625    20.10692
  n-local  -235.41600  -227.83186  -249.44151     0.46293    -0.59266     0.20812
  augment  4996.94302  4992.70347  4989.40431    -1.73858     1.68251    -0.39582
  Kinetic  2803.33272  2781.45429  2812.00843     7.72213     6.61373    -3.09173
  Fock        0.00000     0.00000     0.00000     0.00000     0.00000     0.00000
  vdW        -8.84662    -8.70556    -4.47409    -0.04655     0.04498     0.00827
  -------------------------------------------------------------------------------------
  Total     -24.81059   -23.19347    -7.59793    -0.32978    -0.12513     0.00224
  in kB     -26.04715   -24.34943    -7.97661    -0.34621    -0.13137     0.00235
  external pressure =      -19.46 kB  Pullay stress =        0.00 kB


 VOLUME and BASIS-vectors are now :
 -----------------------------------------------------------------------------
  energy-cutoff  :      400.00
  volume of cell :     1526.12
      direct lattice vectors                 reciprocal lattice vectors
     8.559999890  0.000000000  0.000000000     0.116822431  0.000000000  0.000000000
     0.000000000  8.019998610  0.000000000     0.000000000  0.124688301  0.000000000
     0.000000000  0.000000000 22.230000000     0.000000000  0.000000000  0.044984256

  length of vectors
     8.559999890  8.019998610 22.230000000     0.116822431  0.124688301  0.044984256


 FORCES acting on ions
    electron-ion (+dipol)            ewald-force                    non-local-force                 convergence-correction
 -----------------------------------------------------------------------------------------------
   0.440E+02 0.388E+01 0.198E+04   -.425E+02 -.388E+01 -.197E+04   -.123E+01 0.362E-03 -.413E+01   0.349E-02 -.685E-03 -.382E-02
   -.538E+02 0.102E+01 0.197E+04   0.524E+02 -.103E+01 -.197E+04   0.116E+01 -.668E-02 -.420E+01   0.329E-02 -.531E-02 -.712E-02
   0.423E+02 -.416E+01 0.198E+04   -.409E+02 0.416E+01 -.197E+04   -.115E+01 -.227E-01 -.413E+01   0.394E-02 0.746E-03 -.110E-01
   -.526E+02 -.990E+00 0.197E+04   0.511E+02 0.963E+00 -.196E+04   0.124E+01 0.355E-01 -.432E+01   0.248E-02 0.530E-02 -.522E-02
   0.535E+02 0.333E+01 0.197E+04   -.521E+02 -.338E+01 -.196E+04   -.119E+01 0.301E-01 -.429E+01   -.359E-03 -.831E-03 -.120E-02
   -.430E+02 0.243E+01 0.198E+04   0.417E+02 -.241E+01 -.198E+04   0.112E+01 -.936E-02 -.407E+01   -.394E-02 -.287E-02 -.574E-02
   0.539E+02 -.329E+01 0.197E+04   -.525E+02 0.334E+01 -.197E+04   -.119E+01 -.298E-01 -.430E+01   -.730E-03 0.889E-03 -.814E-02
   -.436E+02 -.224E+01 0.197E+04   0.422E+02 0.222E+01 -.197E+04   0.119E+01 0.908E-02 -.413E+01   -.302E-02 0.277E-02 -.618E-02
   -.173E+02 0.818E+01 0.854E+03   0.175E+02 -.821E+01 -.855E+03   -.242E+00 0.491E-01 0.850E+00   -.688E-03 -.896E-03 -.864E-02
   0.151E+02 0.554E+01 0.863E+03   -.153E+02 -.553E+01 -.864E+03   0.286E+00 -.234E-01 0.871E+00   -.600E-03 -.558E-02 -.111E-01
   -.105E+02 -.808E+01 0.861E+03   0.107E+02 0.808E+01 -.862E+03   -.287E+00 -.108E-01 0.892E+00   0.348E-02 0.928E-03 -.120E-01
   0.135E+02 -.599E+01 0.851E+03   -.137E+02 0.602E+01 -.852E+03   0.300E+00 -.958E-02 0.879E+00   -.980E-03 0.554E-02 -.905E-02
   -.152E+01 0.958E+01 0.874E+03   0.175E+01 -.960E+01 -.875E+03   -.271E+00 0.224E-01 0.546E+00   -.245E-02 -.117E-02 -.514E-02
   0.215E+01 0.427E+01 0.879E+03   -.236E+01 -.417E+01 -.880E+03   0.266E+00 -.485E-01 0.170E+00   0.807E-03 -.102E-01 -.114E-01
   -.371E+01 -.100E+02 0.876E+03   0.395E+01 0.101E+02 -.877E+03   -.249E+00 -.447E-01 0.177E+00   -.654E-02 0.119E-02 -.129E-01
   -.323E+00 -.355E+01 0.870E+03   0.840E-01 0.351E+01 -.871E+03   0.285E+00 0.248E-01 0.708E+00   0.116E-02 0.101E-01 -.994E-02
   -.437E+02 0.273E+02 -.507E+03   0.441E+02 -.271E+02 0.508E+03   -.407E+00 -.202E+00 -.569E+00   0.610E-03 -.324E-02 -.851E-02
   -.152E+02 0.799E+01 -.507E+03   0.145E+02 -.790E+01 0.508E+03   0.727E+00 -.769E-01 -.953E+00   0.381E-02 -.766E-02 -.108E-01
   -.520E+02 -.251E+02 -.490E+03   0.523E+02 0.246E+02 0.490E+03   -.261E+00 0.461E+00 -.659E+00   0.435E-02 0.297E-02 -.616E-02
   0.247E+00 -.756E+01 -.559E+03   -.660E+00 0.758E+01 0.560E+03   0.408E+00 -.197E-01 -.881E+00   0.339E-02 0.752E-02 -.796E-02
   0.509E+01 0.181E+02 -.551E+03   -.458E+01 -.181E+02 0.552E+03   -.512E+00 0.806E-01 -.967E+00   0.220E-02 -.162E-02 -.796E-02
   0.514E+02 0.146E+02 -.460E+03   -.517E+02 -.146E+02 0.461E+03   0.338E+00 -.203E-01 -.246E+00   -.400E-02 -.101E-01 -.818E-02
   0.139E+02 -.173E+02 -.520E+03   -.134E+02 0.173E+02 0.520E+03   -.524E+00 -.714E-01 -.811E+00   -.199E-02 0.158E-02 -.921E-02
   0.432E+02 -.172E+02 -.525E+03   -.434E+02 0.172E+02 0.526E+03   0.183E+00 0.341E-01 -.100E+01   -.356E-02 0.102E-01 -.728E-02
   0.309E+02 0.332E+02 -.166E+04   -.297E+02 -.332E+02 0.166E+04   -.116E+01 0.139E-02 0.379E+01   0.551E-03 -.383E-02 -.798E-02
   -.280E+02 0.168E+02 -.163E+04   0.267E+02 -.169E+02 0.163E+04   0.127E+01 0.139E+00 0.392E+01   0.153E-02 -.553E-02 -.591E-02
   0.238E+02 -.355E+02 -.163E+04   -.226E+02 0.356E+02 0.163E+04   -.126E+01 -.142E+00 0.381E+01   0.123E-02 0.384E-02 -.157E-02
   -.368E+02 -.167E+02 -.168E+04   0.357E+02 0.167E+02 0.167E+04   0.110E+01 -.715E-03 0.385E+01   -.417E-03 0.545E-02 -.422E-02
   0.974E+02 0.898E+02 -.157E+04   -.965E+02 -.899E+02 0.157E+04   -.831E+00 0.609E-01 0.291E+01   -.298E-02 -.159E-02 -.608E-02
   -.133E+03 0.412E+02 -.147E+04   0.133E+03 -.425E+02 0.146E+04   0.626E+00 0.133E+01 0.467E+01   -.159E-02 -.966E-02 -.166E-02
   0.105E+03 -.121E+03 -.146E+04   -.104E+03 0.121E+03 0.146E+04   -.856E+00 0.249E+00 0.196E+01   -.375E-02 0.177E-02 0.986E-03
   -.838E+02 -.368E+02 -.162E+04   0.828E+02 0.372E+02 0.162E+04   0.945E+00 -.367E+00 0.456E+01   0.678E-03 0.986E-02 -.167E-02
   0.788E+02 0.884E+02 -.932E+03   -.795E+02 -.888E+02 0.932E+03   0.638E+00 0.392E+00 -.334E-01   -.454E-03 -.106E-02 0.155E-02
   -.319E+02 0.811E+02 -.927E+03   0.345E+02 -.855E+02 0.930E+03   -.256E+01 0.437E+01 -.277E+01   -.629E-03 -.835E-03 0.335E-02
   -.145E+03 -.133E+02 -.935E+03   0.146E+03 0.136E+02 0.935E+03   -.887E+00 -.247E+00 0.369E-01   0.663E-03 -.206E-03 0.285E-02
   0.147E+03 -.194E+03 -.144E+04   -.169E+03 0.224E+03 0.144E+04   0.216E+02 -.298E+02 -.393E+01   -.121E-02 0.370E-03 0.585E-02
   0.648E+02 0.245E+02 -.210E+03   -.698E+02 -.256E+02 0.208E+03   0.504E+01 0.109E+01 0.212E+01   -.321E-04 -.262E-03 0.390E-03
   0.193E+02 -.194E+02 -.250E+03   -.201E+02 0.223E+02 0.254E+03   0.704E+00 -.286E+01 -.457E+01   -.631E-04 -.107E-03 0.198E-03
   -.159E+02 0.618E+02 -.230E+03   0.184E+02 -.666E+02 0.231E+03   -.250E+01 0.480E+01 -.124E+01   -.627E-04 -.187E-03 0.234E-03
   0.779E+01 0.384E+02 -.239E+03   -.822E+01 -.391E+02 0.240E+03   0.434E+00 0.723E+00 -.116E+01   -.577E-03 -.107E-02 0.340E-03
   -.215E+02 -.294E+02 -.258E+03   0.216E+02 0.318E+02 0.263E+03   -.501E-01 -.236E+01 -.481E+01   0.979E-04 0.473E-04 0.376E-03
   -.481E+02 0.493E+02 -.231E+03   0.510E+02 -.541E+02 0.231E+03   -.283E+01 0.479E+01 -.333E+00   0.119E-03 -.220E-03 0.587E-03
   -.475E+02 -.378E+02 -.207E+03   0.501E+02 0.411E+02 0.204E+03   -.264E+01 -.335E+01 0.343E+01   0.259E-03 0.160E-03 0.790E-03
 -----------------------------------------------------------------------------------------------
   -.166E+02 0.211E+02 0.189E+02   -.455E-12 0.320E-12 0.560E-11   0.168E+02 -.211E+02 -.183E+02   -.249E-02 -.341E-02 -.206E+00
 
 
 POSITION                                       TOTAL-FORCE (eV/Angst)
 -----------------------------------------------------------------------------------
      4.27999      4.01000      0.00000         0.201303      0.005363      0.523940
      5.70701      6.01499      0.00000        -0.254668     -0.021184      0.518533
      4.27999      0.00000      0.00000         0.239841     -0.023127      0.562342
      5.70701      2.00500      0.00000        -0.242665      0.012250      0.538336
      0.00000      4.01000      0.00000         0.228117     -0.012901      0.555953
      1.42700      6.01499      0.00000        -0.220735      0.009389      0.543917
      0.00000      0.00000      0.00000         0.206099      0.019653      0.509573
      1.42700      2.00500      0.00000        -0.236279     -0.012343      0.531067
      6.42000      4.01000      1.23500         0.019852      0.018403     -0.545859
      7.84699      6.01499      1.23500         0.053585     -0.022381     -0.536359
      6.42000      0.00000      1.23500        -0.105926     -0.011551     -0.555645
      7.84699      2.00500      1.23500         0.071392      0.018488     -0.517216
      2.14000      4.01000      1.23500        -0.036930      0.004178     -0.611932
      3.56700      6.01499      1.23500         0.060113      0.039435     -0.496420
      2.14000      0.00000      1.23500        -0.010226     -0.008520     -0.417881
      3.56700      2.00500      1.23500         0.044439     -0.008481     -0.596535
      4.30515      4.01433      2.48039        -0.001304     -0.004261      0.000833
      5.66731      6.02239      2.48356         0.001606      0.008136     -0.000875
      4.25030      8.00326      2.48792         0.003258     -0.002956      0.002069
      5.68905      1.99519      2.49875        -0.007211      0.002197      0.002148
      0.03592      4.01794      2.49586         0.002698     -0.003660      0.004538
      1.43636      6.03253      2.46815         0.005599     -0.001503      0.001608
      0.03351      8.01627      2.48583        -0.010455      0.009581     -0.002834
      1.42238      1.99635      2.48457         0.004251     -0.001072      0.000901
      6.48253      4.01138      3.61127         0.000372      0.000497     -0.000435
      7.77819      6.01391      3.60315        -0.003868     -0.002783      0.002077
      6.48214      8.01786      3.59530         0.008428      0.002730      0.002051
      7.79440      2.00545      3.61141         0.000401     -0.001505     -0.002287
      2.20163      4.00392      3.61319        -0.005732      0.000356     -0.004590
      3.54655      5.96732      3.74116         0.003168      0.001638     -0.000848
      2.14777      0.03789      3.74144         0.002003      0.002891      0.000064
      3.54127      2.00637      3.60740         0.002322      0.005026      0.001508
      2.08528      5.58426      6.84980        -0.002204     -0.003681     -0.004592
      2.90079      6.42019      5.87793         0.004509     -0.000825      0.001630
      4.34498      6.62606      6.29769         0.010204     -0.002771      0.003671
      2.24438      7.52055      5.48784        -0.004436      0.004144     -0.004896
      1.09460      5.36923      6.42807        -0.009550     -0.003869     -0.004457
      1.95407      6.16870      7.77608        -0.000992      0.001588      0.002552
      2.59099      4.63971      7.09045        -0.002619     -0.007160     -0.000216
      2.80082      5.11832      4.87099         0.000628      0.003066     -0.002758
      4.34376      7.10668      7.29375        -0.004459     -0.006106     -0.006365
      4.89107      5.67591      6.36652        -0.007893      0.000731     -0.000071
      4.87294      7.29560      5.60007        -0.006033     -0.007100      0.003761
 -----------------------------------------------------------------------------------
    total drift:                                0.118726      0.042436      0.358936


--------------------------------------------------------------------------------------------------------



  FREE ENERGIE OF THE ION-ELECTRON SYSTEM (eV)
  ---------------------------------------------------
  free  energy   TOTEN  =      -270.01581862 eV

  energy  without entropy=     -269.97066605  energy(sigma->0) =     -270.00453048
 


--------------------------------------------------------------------------------------------------------


    POTLOK:  cpu time    0.39: real time    0.39


--------------------------------------------------------------------------------------------------------


 Dimer: Init Mode:
 Dimer: MODECAR found
 Dimer: -----------------
 Dimer: Itr    1 Rot    0

 Dimer: Central Point
 Dimer: F0      0.037880

 Dimer: Projection
 Dimer: N*F0  1.705836399311805E-003
 Dimer: F0sq  1.434881386756774E-003
 Dimer: Feffsq   2.909877821217062E-006
 
 stress matrix after NEB project (eV)
    -24.81059     -0.32978      0.00224
     -0.32978    -23.19347     -0.12513
      0.00224     -0.12513     -7.59793
  FORCES: max atom, RMS     0.014461    0.005777
  FORCE total and by dimension    0.037880    0.010455
  Stress total and by dimension   34.806316   24.810589
 OPT: skip step - force has converged


--------------------------------------------------------------------------------------------------------


  
 reached required accuracy - stopping structural energy minimisation
     LOOP+:  cpu time 1563.55: real time 1563.59
    4ORBIT:  cpu time    0.00: real time    0.00

 total amount of memory used by VASP on root node   203285. kBytes
========================================================================

   base      :      30000. kBytes
   nonlr-proj:       7758. kBytes
   fftplans  :       7367. kBytes
   grid      :      34170. kBytes
   one-center:       1337. kBytes
   wavefun   :     122653. kBytes
 
  
  
 General timing and accounting informations for this job:
 ========================================================
  
                  Total CPU time used (sec):     1570.044
                            User time (sec):     1569.132
                          System time (sec):        0.912
                         Elapsed time (sec):     1571.043
  
                   Maximum memory used (kb):      244896.
                   Average memory used (kb):           0.
  
                          Minor page faults:       291295
                          Major page faults:            0
                 Voluntary context switches:          392
