/*--------------------------------*- C++ -*----------------------------------*\
  =========                 |
  \\      /  F ield         | OpenFOAM: The Open Source CFD Toolbox
   \\    /   O peration     | Website:  https://openfoam.org
    \\  /    A nd           | Version:  8
     \\/     M anipulation  |
\*---------------------------------------------------------------------------*/
FoamFile
{
    version     2.0;
    format      ascii;
    class       volScalarField;
    location    "0.1";
    object      CH3CHOHCH3(s);
}
// * * * * * * * * * * * * * * * * * * * * * * * * * * * * * * * * * * * * * //

dimensions      [0 0 0 0 0 0 0];

internalField   uniform 0;

boundaryField
{
    reactingWall
    {
        type            fixedValue;
        value           nonuniform List<scalar> 
75
(
4.42943240594767552e-07
4.24618551367557227e-07
3.99538513892659219e-07
3.65103925076815199e-07
3.32782028533152756e-07
3.19921689418163815e-07
3.07765174378415277e-07
2.91339651262914333e-07
2.69401680606674031e-07
2.41999751485600938e-07
2.10558405150875929e-07
1.77417826779813404e-07
1.44608553823035883e-07
1.12411045102157154e-07
8.23623151203090636e-08
5.76307977649850212e-08
3.96570333529558395e-08
2.92582723022929302e-08
2.30011507666341914e-08
1.89684377838121569e-08
1.62476429721527989e-08
1.39097353251119562e-08
1.17103438269566588e-08
9.57403589136458026e-09
7.6522562594714689e-09
5.95460893765041726e-09
4.48148537376794857e-09
3.25203840026020184e-09
2.27203410923813229e-09
1.53719764594792518e-09
1.01787518494404284e-09
6.7088116959670272e-10
4.51574337330973252e-10
3.19099304142056716e-10
2.33796800707696051e-10
1.74168593251725885e-10
1.2727282290126573e-10
9.01298748918468607e-11
6.77161521616594371e-11
5.60876352010898124e-11
4.3863059097009441e-11
3.22761812747585059e-11
1.94737448863088799e-11
9.39872325228277375e-12
4.92333029248247754e-12
3.13308916821775053e-12
1.93430803142846052e-12
1.25419070541933531e-12
1.00100507221524394e-12
7.55998891931973919e-13
4.7882338756600149e-13
2.65032576941233717e-13
1.70373938092925664e-13
1.181585070146667e-13
8.4999070540645614e-14
6.14758600224924512e-14
4.47831963406349399e-14
3.06801447231461926e-14
1.91665329160308982e-14
1.22699399642778041e-14
7.83293113118199827e-15
4.66929107591643667e-15
2.49869216445379664e-15
1.30421887649870272e-15
8.31784587203543844e-16
6.55276268282386085e-16
5.33849422185536666e-16
4.14406647106345861e-16
3.06172382270410483e-16
2.11330412538921928e-16
1.39023700387230779e-16
1.06809391820895854e-16
8.14193581309084123e-17
5.70573512396153664e-17
3.60071945314211812e-17
)
;
    }
    inertWall
    {
        type            zeroGradient;
    }
    inlet
    {
        type            fixedValue;
        value           uniform 0;
    }
    outlet
    {
        type            zeroGradient;
    }
    defaultFaces
    {
        type            empty;
    }
}


// ************************************************************************* //
