/*--------------------------------*- C++ -*----------------------------------*\
  =========                 |
  \\      /  F ield         | OpenFOAM: The Open Source CFD Toolbox
   \\    /   O peration     | Website:  https://openfoam.org
    \\  /    A nd           | Version:  8
     \\/     M anipulation  |
\*---------------------------------------------------------------------------*/
FoamFile
{
    version     2.0;
    format      ascii;
    class       volScalarField;
    location    "0.1";
    object      CH3COHCH3(s);
}
// * * * * * * * * * * * * * * * * * * * * * * * * * * * * * * * * * * * * * //

dimensions      [0 0 0 0 0 0 0];

internalField   uniform 0;

boundaryField
{
    reactingWall
    {
        type            fixedValue;
        value           nonuniform List<scalar> 
75
(
9.0584016623963922e-13
8.31836747241001529e-13
7.49660472956797981e-13
6.63660951421937473e-13
6.00955133538129918e-13
5.43067339086540195e-13
4.7873823515541939e-13
4.10802078314015227e-13
3.43568544304457576e-13
2.79799995344165989e-13
2.21142335142201627e-13
1.68940301884710838e-13
1.24423432779433199e-13
8.92633896753468929e-14
6.3127067008697863e-14
4.51605482980541192e-14
3.35935386132860007e-14
2.61183991084668515e-14
2.08857594785417304e-14
1.69788355074931456e-14
1.38205774755779628e-14
1.11200417340768328e-14
8.79060926021801e-15
6.79538422338147556e-15
5.11963544497864133e-15
3.73764100231657085e-15
2.64620567967329883e-15
1.8229772523843092e-15
1.23097746156102222e-15
8.29107122533995568e-16
5.67276532745951993e-16
4.00098544046779825e-16
2.9116707689908771e-16
2.1571667235090523e-16
1.59904941782782079e-16
1.17358765958758592e-16
8.50091638719483212e-17
6.16680899773086729e-17
4.50878954195445787e-17
3.17771459396908004e-17
2.07847426574330033e-17
1.22582597482334921e-17
6.29040403946862202e-18
3.24577526708616661e-18
2.03330770259706651e-18
1.386281791264682e-18
9.3245987736901554e-19
6.83139667109224638e-19
4.90567818700130796e-19
3.21025826259818939e-19
1.89562179620025572e-19
1.15886276265856407e-19
8.03233615723633977e-20
5.70740360641327142e-20
4.03099913826299031e-20
2.7713475705669155e-20
1.82918872019891572e-20
1.12857620066285079e-20
6.81515306700590983e-21
4.13339880506779852e-21
2.40819626281527499e-21
1.33342592343902189e-21
7.45392590313364393e-22
4.77543957277177959e-22
3.60729118276492976e-22
2.86742401479986152e-22
2.21993177735628017e-22
1.65638775783255464e-22
1.19222256648180606e-22
8.238546810447002e-23
5.92877356207226203e-23
4.39946342303894324e-23
2.89849531227689942e-23
1.87115544432795845e-23
1.1037058734147567e-23
)
;
    }
    inertWall
    {
        type            zeroGradient;
    }
    inlet
    {
        type            fixedValue;
        value           uniform 0;
    }
    outlet
    {
        type            zeroGradient;
    }
    defaultFaces
    {
        type            empty;
    }
}


// ************************************************************************* //
