/*--------------------------------*- C++ -*----------------------------------*\
  =========                 |
  \\      /  F ield         | OpenFOAM: The Open Source CFD Toolbox
   \\    /   O peration     | Website:  https://openfoam.org
    \\  /    A nd           | Version:  8
     \\/     M anipulation  |
\*---------------------------------------------------------------------------*/
FoamFile
{
    version     2.0;
    format      ascii;
    class       volScalarField;
    location    "0.1";
    object      CH3COCH3(s);
}
// * * * * * * * * * * * * * * * * * * * * * * * * * * * * * * * * * * * * * //

dimensions      [0 0 0 0 0 0 0];

internalField   uniform 0;

boundaryField
{
    reactingWall
    {
        type            fixedValue;
        value           nonuniform List<scalar> 
75
(
5.3707757555424552e-21
1.03374077531202302e-20
1.59718214213772227e-20
1.9404646402999417e-20
2.00895913722505467e-20
1.95717691542231021e-20
1.84289759899394928e-20
1.67567299060539548e-20
1.48547773804513088e-20
1.28439886115349515e-20
1.08128588904923865e-20
8.80785665436977612e-21
6.88462504052599383e-21
5.13911024485824932e-21
3.62122054901524664e-21
2.43983562413564107e-21
1.59812891123654675e-21
1.09794412278404314e-21
7.84876657312219397e-22
5.75822113843767888e-22
4.29177287057173973e-22
3.22639593657377322e-22
2.43162703056185668e-22
1.82538081176810755e-22
1.35611731532337554e-22
9.90642940553442762e-23
7.10496292054658855e-23
5.02554417359467775e-23
3.53201274313408827e-23
2.50302396668318526e-23
1.81810188145462832e-23
1.36241573102612655e-23
1.04288215068391529e-23
8.0375333409155072e-24
6.2236617805147409e-24
4.90978416706452888e-24
4.05169259934092704e-24
3.58665684914668044e-24
3.41518126269642332e-24
3.43419562897520057e-24
3.61637063340164661e-24
3.99310676388206711e-24
4.6271340076287139e-24
5.05471889178042714e-24
5.12845420649858921e-24
5.08804644020274571e-24
4.98868474007104394e-24
4.95405034508747799e-24
5.00677813623752747e-24
5.13324720540102556e-24
5.36132426818995013e-24
5.58025639275503113e-24
5.68083637886222269e-24
5.78157850041257715e-24
5.92439500587138055e-24
6.14339140662670809e-24
6.48567945795774009e-24
7.00559662703121562e-24
7.53386876428543898e-24
7.85719191578620989e-24
8.10648243051746921e-24
8.42283760392897315e-24
8.72907761036140991e-24
8.93518198460962339e-24
9.05666074181498365e-24
9.15217168588732297e-24
9.28964067081409118e-24
9.52481265425942075e-24
9.93190908354106398e-24
1.04734729370335809e-23
1.07549702194616874e-23
1.07878472166532869e-23
1.07771275496461642e-23
1.08107464178923785e-23
1.09428472280791494e-23
)
;
    }
    inertWall
    {
        type            zeroGradient;
    }
    inlet
    {
        type            fixedValue;
        value           uniform 0;
    }
    outlet
    {
        type            zeroGradient;
    }
    defaultFaces
    {
        type            empty;
    }
}


// ************************************************************************* //
