/*--------------------------------*- C++ -*----------------------------------*\
  =========                 |
  \\      /  F ield         | OpenFOAM: The Open Source CFD Toolbox
   \\    /   O peration     | Website:  https://openfoam.org
    \\  /    A nd           | Version:  8
     \\/     M anipulation  |
\*---------------------------------------------------------------------------*/
FoamFile
{
    version     2.0;
    format      ascii;
    class       volScalarField;
    location    "0.1";
    object      CH3CHOCH3(s);
}
// * * * * * * * * * * * * * * * * * * * * * * * * * * * * * * * * * * * * * //

dimensions      [0 0 0 0 0 0 0];

internalField   uniform 0;

boundaryField
{
    reactingWall
    {
        type            fixedValue;
        value           nonuniform List<scalar> 
75
(
1.39567406569614029e-08
1.2709904003482318e-08
1.13490617686110032e-08
9.96722738609391984e-09
8.94825697491463883e-09
7.998442214367383e-09
6.96631602060711959e-09
5.90629547813870992e-09
4.88647390994237966e-09
3.94251477188247263e-09
3.08874289491561476e-09
2.34068162799786004e-09
1.71331733091909044e-09
1.22764070603948091e-09
8.7001616751602104e-10
6.24730013403051869e-10
4.65619348321449109e-10
3.61636091443990386e-10
2.883227078042998e-10
2.33481043554880528e-10
1.89181747955135857e-10
1.515285062356203e-10
1.19247395478306026e-10
9.17717951605933346e-11
6.88487072633815417e-11
5.00701255430117434e-11
3.5372071269676877e-11
2.43620299769195406e-11
1.64849149798663216e-11
1.11505193834822364e-11
7.66929355036004526e-12
5.43126755375083427e-12
3.95724285206877532e-12
2.92701578516569972e-12
2.16288751152697838e-12
1.58137532738774024e-12
1.14060894770021123e-12
8.22492342654031533e-13
5.96078575261534583e-13
4.16086965519132102e-13
2.69814809632900908e-13
1.58239664653561844e-13
8.14253506974774697e-14
4.24828562754082325e-14
2.68232592123816859e-14
1.8329912348620321e-14
1.23559997003473304e-14
9.01731221913622431e-15
6.43477237916465448e-15
4.19484739465644436e-15
2.48396674744857594e-15
1.52850501058106131e-15
1.06147190724634032e-15
7.5365511204505415e-16
5.30970558418431137e-16
3.64077994691451264e-16
2.39818090469073476e-16
1.48201460626272438e-16
8.99303000427301637e-17
5.47994040327017167e-17
3.21036620163506612e-17
1.79378400651060239e-17
1.0125454827617854e-17
6.45307462531150629e-18
4.76292383242877149e-18
3.74976162566889581e-18
2.89595547760194396e-18
2.1578373328439745e-18
1.55233918908556386e-18
1.07488338552119927e-18
7.74807763074387647e-19
5.72405299011209257e-19
3.76866656506335255e-19
2.43643018436078165e-19
1.44522785833521211e-19
)
;
    }
    inertWall
    {
        type            zeroGradient;
    }
    inlet
    {
        type            fixedValue;
        value           uniform 0;
    }
    outlet
    {
        type            zeroGradient;
    }
    defaultFaces
    {
        type            empty;
    }
}


// ************************************************************************* //
