/*--------------------------------*- C++ -*----------------------------------*\
  =========                 |
  \\      /  F ield         | OpenFOAM: The Open Source CFD Toolbox
   \\    /   O peration     | Website:  https://openfoam.org
    \\  /    A nd           | Version:  8
     \\/     M anipulation  |
\*---------------------------------------------------------------------------*/
FoamFile
{
    version     2.0;
    format      ascii;
    class       volScalarField;
    location    "0.1";
    object      gas::h;
}
// * * * * * * * * * * * * * * * * * * * * * * * * * * * * * * * * * * * * * //

dimensions      [0 2 -2 0 0 0 0];

internalField   nonuniform List<scalar> 
1800
(
-158553.580709899776
-158553.580687785987
-158553.580344489746
-158553.576234462205
-158553.536773301079
-158553.228838796058
-158551.260058953689
-158540.824715400755
-158494.357597463386
-158319.105959293258
-157758.676612242154
-156244.672841772554
-152807.575143850845
-146281.546593225328
-135961.263367948122
-158553.580710236769
-158553.580698464619
-158553.580552476167
-158553.57908075914
-158553.566809974
-158553.481927812536
-158552.989843397256
-158550.564230352116
-158540.276657970477
-158502.478375064267
-158381.921983494103
-158048.742016752309
-157254.699205347046
-155634.388983030687
-152831.894520608039
-158553.580710430833
-158553.580703091488
-158553.580625522387
-158553.579965345096
-158553.575221527193
-158553.546191791625
-158553.393360556744
-158552.691359367745
-158549.84944029554
-158539.669268299127
-158507.426654201699
-158417.552940568858
-158198.86354610516
-157739.331845654349
-156917.116973859345
-158553.580710509705
-158553.580704709952
-158553.580647991534
-158553.580217704555
-158553.577505363792
-158553.562861576152
-158553.493831516651
-158553.204953795415
-158552.119550509931
-158548.444590397616
-158537.263688681036
-158506.912788422196
-158434.128754901496
-158281.592339667579
-158005.276952320623
-158553.580710532493
-158553.580705135479
-158553.580653597368
-158553.58027821334
-158553.5780409695
-158553.566732975392
-158553.517092763243
-158553.324367775058
-158552.653823779081
-158550.546450370108
-158544.546206443105
-158529.080148491805
-158493.081659914984
-158417.513676386239
-158274.444802993356
-158553.580710515031
-158553.580704820197
-158553.580649957497
-158553.580248715502
-158553.577864936786
-158553.565941784735
-158553.514522293117
-158553.319917008543
-158552.664751460397
-158550.681841490528
-158545.241178690281
-158531.61516438023
-158500.272115037282
-158433.612590778765
-158302.690644527174
-158553.580710497015
-158553.580704450374
-158553.580645468581
-158553.58020912268
-158553.577591175766
-158553.564395353285
-158553.507189858938
-158553.290116873046
-158552.559117926983
-158550.349688385642
-158544.296477930504
-158529.129222683609
-158494.086919555062
-158418.887696159974
-158272.911157512863
-158553.580710499635
-158553.58070449761
-158553.580645907321
-158553.580212663073
-158553.577617286937
-158553.564561632898
-158553.508100984589
-158553.294475314935
-158552.577371467982
-158550.416879214201
-158544.516366754018
-158529.778977473557
-158495.850563660264
-158423.523134323856
-158289.346776990889
-158553.580710513081
-158553.58070472104
-158553.580648413888
-158553.580234552763
-158553.577770318458
-158553.565432398231
-158553.51222330617
-158553.311073269258
-158552.635333538579
-158550.595588523924
-158545.010861087649
-158531.023889871081
-158498.738070363528
-158431.546487090847
-158306.313679363171
-158553.580710503535
-158553.580704557506
-158553.580646390445
-158553.580215565686
-158553.577631589404
-158553.564620849327
-158553.508304403367
-158553.295032083843
-158552.578484996804
-158550.418176253908
-158544.516775742406
-158529.783765657718
-158495.946246515465
-158428.796430234594
-158303.01967077615
-158553.58071050726
-158553.580704621068
-158553.580647156516
-158553.58022239132
-158553.577678492729
-158553.564876757155
-158553.509439583868
-158553.299200107867
-158552.591281853267
-158550.450944729702
-158544.584562121338
-158529.888499203516
-158496.514889074926
-158431.817933030688
-158312.031030145386
-158553.580710513284
-158553.580704728636
-158553.580648458446
-158553.580234418681
-158553.577764703019
-158553.565367419738
-158553.511731750099
-158553.30826783058
-158552.622428612231
-158550.545665164769
-158544.843630756717
-158530.550529458938
-158498.543421827402
-158434.263862160587
-158311.944680279033
-158553.580710500362
-158553.580704495369
-158553.58064573133
-158553.58020950784
-158553.577582270314
-158553.564277840836
-158553.506284133473
-158553.284863250155
-158552.534145762271
-158550.248404471407
-158543.941432507359
-158528.109186229005
-158492.84883898971
-158420.479789145727
-158279.926467725774
-158553.580710494338
-158553.580704388325
-158553.580644556612
-158553.580199347227
-158553.57751082952
-158553.5638754018
-158553.504387577384
-158553.277066469222
-158552.505100925599
-158550.147463010449
-158543.616010309721
-158527.121884823457
-158489.27508269914
-158408.656346834148
-158246.332093254285
-158553.580710514419
-158553.580704814522
-158553.580650030461
-158553.580250460451
-158553.577882670739
-158553.566048291803
-158553.514950318378
-158553.321022548771
-158552.666262821149
-158550.683521779079
-158545.263449780381
-158531.834284594952
-158501.411807339755
-158437.022168129421
-158307.884867925226
-158553.580710536247
-158553.580705218337
-158553.580654758262
-158553.580290351034
-158553.578141976468
-158553.567419416853
-158553.521005527291
-158553.343709167268
-158552.739028879994
-158550.885878776782
-158545.768244385516
-158532.999379336979
-158503.986109045742
-158442.986412005819
-158323.380369304447
-158553.580710521317
-158553.580704961583
-158553.58065153315
-158553.580256284826
-158553.577843679086
-158553.56526949961
-158553.508073232486
-158553.277215051145
-158552.441469751677
-158549.717587060906
-158541.74128700493
-158520.860491028288
-158472.174606188986
-158371.119116302027
-158185.095469945314
-158553.580710448703
-158553.580703522719
-158553.580631888326
-158553.580038469285
-158553.575886255479
-158553.551008680864
-158553.422103241726
-158552.837556797254
-158550.497479583864
-158542.197404305945
-158516.12995233605
-158443.939683265198
-158268.8037577004
-157899.765849820629
-157233.414456408151
-158553.580710230191
-158553.580698291975
-158553.580549726816
-158553.579045897175
-158553.566447272955
-158553.478956671519
-158552.970552042738
-158550.462798492226
-158539.835514460166
-158500.835538618063
-158376.420404352364
-158031.617182979564
-157204.868623667746
-155501.364668355091
-152527.760753018782
-158553.580709927599
-158553.580688517744
-158553.580357583269
-158553.576405995729
-158553.538487746322
-158553.242352972913
-158551.34738159753
-158541.310012991715
-158496.740281243285
-158329.264942884445
-157794.889686060924
-156350.01326236056
-153051.763178036839
-146712.961671393452
-136558.955586258759
-125162.686228621606
-112804.658388912532
-100195.656231051267
-88669.2944625389355
-78984.5291335377697
-71016.679326180034
-63632.080035768282
-52848.4631012241734
-34967.6508042018177
-11952.1958251186334
11440.9439551628566
29919.1359192017626
43595.8207296707842
57894.8535376601503
72920.9283541303448
86688.2989217764843
97553.7089760045201
105134.869487584772
110019.122847091377
113103.610854523547
114963.15693081182
116230.326578397377
117333.975118694696
118296.962254334401
119117.522570076675
119825.812053352958
120549.783241722806
121418.412175734979
122307.48386324571
123085.312323790495
123460.881684543347
123775.916038408221
124081.150579380774
124336.82586625054
124546.281248714484
124718.284191112281
124847.76022144439
124919.349771431182
124968.035116207815
125003.582201053927
125016.503229723094
125023.504302077839
125028.949055456338
125033.121568439063
125035.982121343142
125037.959146839421
125039.343972984425
125040.331203698559
125041.046166246582
125041.506286285119
125041.777894151426
125041.936308664939
125042.042949404029
125042.126856687508
125042.200203647546
125042.260347141069
125042.299045493375
125042.317479092715
125042.331643499812
125042.344540653692
125042.355030668041
125042.360881343644
125042.364036476967
125042.365551047973
125042.366302311813
125042.366722473176
125042.36698036427
125042.367206802621
125042.367424736818
125042.36757128207
125042.367648094252
125042.367704269258
125042.367750927282
125042.367787810683
125042.367822451779
-149695.431563000137
-145774.893539291457
-141408.998247418291
-137100.93672347939
-133235.10133422658
-129780.290972295697
-126320.434497171969
-122747.452551204406
-117837.189336655269
-109348.436956017744
-94731.1686723754829
-78182.8729863173357
-60819.2157110676926
-41640.3500780081449
-20854.8471320118806
404.062470979347495
20494.6862168262887
38028.1094037032817
52332.5113090379527
63438.0955595256091
72034.4184247123922
78856.2059098635073
85099.1106511367689
91420.5813498517673
97239.2860048533039
101324.499472251991
103692.776701805065
105787.170495149679
108027.383160468671
111084.699491793348
115021.884656420531
117573.684220084426
118723.054076762506
119746.755258340621
121288.601005354663
122321.74818241653
122886.504719587669
123396.098689470804
123835.071346283105
124493.502941653278
124695.323746998605
124810.275596427557
124879.243648801581
124926.539783865694
124962.345205488324
124982.95081066266
124998.227009462847
125011.344957367939
125022.479235320905
125029.867003181716
125034.090473649878
125036.548152403906
125038.139193443814
125039.251460660787
125040.039452335375
125040.602783964394
125041.259331352441
125041.756797338705
125041.901238040125
125041.994850401621
125042.094924651115
125042.196180988976
125042.277666939044
125042.320604453736
125042.341858001921
125042.352153649394
125042.357385139738
125042.360280812602
125042.361721523179
125042.362954053184
125042.364621184999
125042.365638641393
125042.366105716734
125042.366533892142
125042.366891911151
-155975.712379993493
-154759.385708882561
-153347.181435673439
-151871.720447273197
-150436.285251085443
-149020.832506188424
-147498.91316480629
-145767.61424274079
-143305.313789518288
-138907.324937212165
-132079.675629118457
-123383.650260456605
-112197.432640030311
-98063.3936042447021
-80771.9986697982531
-60833.8078778182098
-39725.4894313233817
-19588.3510862179173
-2216.95870994354027
11415.7353017019395
21802.0822495264038
30521.6690280315343
39976.2853672486963
51412.2807989003632
64919.1729502394519
76732.2689446934819
83737.6740192770958
88962.2630404584634
93576.5244940676494
97832.2178486264165
103776.993185059269
109242.778870503462
111964.623258212916
114786.632616112198
117464.371036606884
119544.261848125883
120984.962582793145
121751.846263446874
122591.968797266789
123354.340626670106
123923.337952272923
124311.785507730878
124549.208144326549
124715.445418527815
124814.497242508005
124863.140219838868
124901.210192349667
124934.794244963865
124966.995227538326
124994.695206700431
125014.122450517723
125024.117080264274
125029.247256553906
125032.416919807947
125034.864316431471
125036.789545572858
125038.314385032005
125039.922537900973
125040.986002773847
125041.297086850289
125041.495333152328
125041.687382365504
125041.951424720522
125042.125403660015
125042.22809398672
125042.287769660965
125042.320776050808
125042.338578954746
125042.346930059051
125042.352673535788
125042.357567841638
125042.361194001729
125042.36258636383
125042.363605962833
125042.364548661921
-157683.640170260507
-157250.9748643208
-156706.33847114243
-156048.150541576761
-155251.80480188629
-154257.70059882215
-152997.174455714121
-151435.963094202074
-149215.456980723073
-145770.573575117509
-141175.277117033955
-135189.458684049867
-127573.685146439704
-118034.979243183232
-106317.244626366475
-92078.1799382191821
-75832.9082627850003
-58746.0249506137916
-42490.2099882141047
-28358.2107578854338
-17254.1533895996545
-5768.31279160996928
7924.00541006968433
24138.2566921164253
43116.8520898906208
58987.0870556336668
70902.8600694943889
79364.1553904864268
85271.3198591595719
91087.8905864197004
97245.8065261988086
106561.595356846839
111041.217075696492
113747.604428460385
115827.073209479538
117446.243690424322
118975.965747518203
120606.205992124815
121982.564801530476
122909.459262936929
123565.348679946255
124061.201124702391
124458.115386829028
124614.523184835271
124700.271431572619
124766.995205695377
124823.328991432529
124871.857265991333
124917.289515898898
124962.783756385645
124997.280179623398
125016.568991407679
125025.192007478618
125029.192499333862
125032.239704393505
125034.616541298106
125036.906866322504
125038.751106836673
125040.120985539805
125040.958930951092
125041.211966898365
125041.423490437344
125041.760732122479
125041.99929692375
125042.111370479906
125042.19725726913
125042.261376272727
125042.306956683271
125042.332396132784
125042.346946267862
125042.355546453327
125042.360449403714
125042.361947059922
125042.363084591765
125042.364079324107
-158097.494352246809
-157834.662376068562
-157452.902907458221
-156903.273733474489
-156111.426952612092
-154972.8915198303
-153363.976571911044
-151182.435078554583
-148391.925077193882
-144795.493141026207
-140187.654189013789
-134419.463891805965
-127399.06393648895
-119118.312195799357
-109585.965537738477
-98380.2617213937483
-85773.3339895504614
-72510.3762821825367
-59275.4999814867551
-47848.8762481869562
-36967.6835968312225
-23185.6180337490514
-6994.59527383720797
13874.267260122615
33152.412382592338
49804.838846861574
64315.841548373246
74249.7636635025119
79598.5306499985745
85804.7271635376819
95614.3403646534425
104166.623997853298
107722.535471477517
110930.592136755949
114286.131132615585
116224.307543257528
117924.965454998775
119905.522757749131
121601.956033112307
122694.817836911738
123544.095422657847
124180.814044804691
124441.230661061301
124557.974590386526
124651.081587022243
124729.832254266876
124796.728436399077
124853.276142160379
124904.808676678222
124956.932557313732
124992.337895070945
125014.106055411161
125023.860830766876
125028.161045125642
125032.157533363119
125034.630380159811
125036.765321536179
125038.738321640136
125039.994333610637
125040.885404871646
125041.41759686383
125041.690596196699
125041.809333783327
125041.918013698552
125042.010435771881
125042.102283390617
125042.192353216538
125042.274414073472
125042.31880144382
125042.342538415134
125042.355022988369
125042.36013880033
125042.361764809757
125042.363053679102
125042.364227615763
-158131.873031610274
-157866.077691794082
-157456.938700174069
-156840.04697181849
-155928.748837106308
-154614.801352900715
-152778.770170751901
-150322.45959425866
-147248.891782937571
-143490.489245786361
-138869.952715750871
-133276.30091800369
-126664.02939396647
-119087.032990519336
-110591.379294530023
-100770.988856267228
-89789.2003453711659
-77862.1880168714561
-64382.4452998696215
-50565.0354001122178
-36838.5799923469895
-19751.7897962532115
980.774267375484555
21839.669807219947
42080.7607606791862
57770.4007552410621
67928.9527914976788
73855.980985283255
82127.3015217515785
93210.4445706146798
98491.4806448040472
105170.852910428628
108749.14208594145
111951.97985505659
114504.028788302821
117019.338065402437
118717.029078033753
120229.764045352844
121648.758121455612
122843.983262292022
123772.901676606227
124262.455222616845
124421.451750124921
124539.425360463516
124635.951630334894
124720.058778227947
124790.845847743753
124851.252479332485
124907.614403262283
124960.911676807198
124995.700349558363
125016.099990300208
125025.600989954532
125029.802063357143
125032.599274933455
125035.227293166783
125037.849713820877
125039.271811944054
125040.065557582857
125040.897267679466
125041.458210952318
125041.782432393244
125041.890533906335
125041.965467821981
125042.03304119641
125042.134480006876
125042.231606919231
125042.295462158625
125042.328987538363
125042.347002990224
125042.356871946482
125042.361899730429
125042.364009039593
125042.364766288694
125042.365582458107
-158070.108125167171
-157761.732845531602
-157285.082421660714
-156567.796191657049
-155518.265350867732
-154027.449690776382
-151978.346050111868
-149270.384890806687
-145876.053964240273
-141873.16930167377
-137107.136783992057
-131464.716260789341
-124896.804677378517
-117408.056234860094
-109002.975377845811
-99243.6750142972451
-87922.8443192710401
-75259.562258144666
-60841.9672661028162
-44735.9569828563472
-27446.2364428205947
-11087.5552887178401
6930.86361804690569
31400.9812243269407
50492.1557265131851
61008.693504066614
67693.5041097552457
76135.0067977641011
86514.4848100163363
92683.577823706597
99217.660036556932
104967.312958066948
109104.429836439522
112507.926735719913
115350.512401061002
117565.888408132218
119439.396505824217
121004.095642959219
122307.728844624115
123382.280363317404
124094.809122137667
124309.067960568471
124451.789232857482
124557.428292051045
124647.899684291449
124726.400665615554
124791.597748286498
124849.581949648855
124909.648957192534
124964.139881319541
124998.834635579231
125018.585460025482
125026.199005082817
125029.812882076265
125033.404499543394
125036.352899065037
125037.976567085236
125039.083014905438
125040.29197548097
125041.320527170537
125041.659740283387
125041.83613949272
125041.952185645438
125042.027141675324
125042.105471512201
125042.204093415829
125042.277439517347
125042.317870797007
125042.339693679009
125042.351599740403
125042.358271714009
125042.362045425354
125042.364216377202
125042.365670264917
125042.366551012921
-158090.554516876029
-157794.039013085683
-157347.022389478079
-156677.279343707545
-155700.539683360665
-154313.231665118336
-152397.531000057585
-149836.461855874513
-146549.482353297848
-142579.023675079108
-137917.251143647474
-132385.267686817038
-125887.366842470103
-118377.171494215261
-109824.597071889468
-99806.5211054862593
-87854.6387703287328
-74474.8813889549783
-59448.4961147930662
-42358.3178534214603
-23986.9469105120406
-4926.83537214812714
18497.0038181621094
34545.4232360098686
44289.6781423650173
52930.9569411366756
63431.8204652406494
74979.6022811232833
86619.2559493617882
93610.8901641907141
101047.89395987257
105907.706677670547
109708.583112587861
112798.973510013078
116051.501031696054
118279.7347919569
119742.65809388319
121057.181706154573
122438.022432080863
123576.524454288636
124068.0806250147
124261.252487745209
124410.37897116899
124529.463690125325
124629.301735774599
124711.693072669121
124777.964980933146
124839.098126121709
124911.635796053422
124973.280690458079
125001.832792370027
125011.316269375311
125018.269154631649
125025.454273453332
125033.172399183022
125035.823064291952
125037.40512642861
125038.700058001996
125040.49745658123
125041.39734366865
125041.652149991743
125041.821439378764
125041.953338129329
125042.042225965575
125042.156383128691
125042.253515138756
125042.304066085708
125042.330460426048
125042.345174518749
125042.354023120963
125042.359236577642
125042.362236526315
125042.364049967509
125042.365307589673
125042.366376340506
-158118.027226420876
-157818.779053012899
-157383.325773009274
-156730.721128000965
-155774.356298552593
-154408.690923720947
-152510.38261045565
-149945.68744661237
-146591.559767432598
-142390.535305870959
-137441.129850348894
-131589.676087737636
-124639.155372550871
-116462.904626114134
-106974.471054406793
-95630.1396202148753
-81480.311390418894
-65370.1751924139608
-48526.0374845916303
-31831.5465255631971
-13948.868576827821
5680.74757628596126
25126.8186077446953
34014.1931080896102
41335.2606577907718
47542.4685793378594
55965.2193021808052
68231.2566581460705
79657.8809692533541
88997.4014060355112
96936.6675100224093
103586.277831237749
108706.788721413977
112388.099470728775
115387.868770601068
117974.378626252263
120012.957235490918
121558.641583485805
122829.22384504108
123608.653606130916
123914.467140595894
124150.296540602358
124328.144075759919
124467.754642799511
124583.907321150386
124678.108072283445
124755.381396215671
124829.618764004335
124918.364511284497
124977.561586375596
124997.413008371004
125007.525042087989
125015.507824144734
125023.846164875315
125032.402783451413
125035.683756746948
125036.991265391873
125039.020456466431
125040.627349755639
125041.190205805164
125041.466116848358
125041.664257301512
125041.836527268053
125042.038086852452
125042.208735689201
125042.285694179023
125042.307047826107
125042.321435109392
125042.340438987914
125042.354331696581
125042.358223356481
125042.360731922323
125042.362677898302
125042.364296755695
125042.365806602844
-158112.801067386434
-157798.318635962089
-157337.591923493106
-156673.749332014413
-155704.484797728801
-154324.376018450304
-152409.166343791003
-149825.160710367258
-146448.072794823267
-142200.658736461017
-137136.26201627191
-131410.919652154087
-124814.007567170687
-117261.263149013161
-108739.189211714795
-98873.254299504857
-87128.0336496256641
-73456.1010343849775
-54327.2602470761267
-28972.6716293014433
-6539.32685939516432
10799.9511599996094
18521.6256110697614
26385.790910110296
36635.9129232382111
48483.9778927061343
61695.0695360506579
73510.7276001755818
82958.7176513487648
90486.003965581287
96396.7009262239444
101205.623182859243
105504.074493985201
109671.638593640033
114200.393300897907
117728.627601239423
120069.300626856653
121631.744565235553
122842.670020352409
123386.967663678763
123753.966646785906
124027.842395870233
124251.911569674485
124431.36683086984
124570.482580358002
124676.801488968078
124765.798806861407
124849.261983800156
124936.541716268533
124981.971779993401
124995.732523044804
125005.400219113595
125013.738860860511
125022.591170941465
125031.083458082969
125035.499289411586
125038.200201466359
125039.333895776377
125039.902606659423
125040.393091689242
125040.850512245772
125041.311395251032
125041.809554897976
125042.109196922029
125042.195318419166
125042.247657084707
125042.282646814885
125042.308732668564
125042.338041785377
125042.355054241503
125042.359825453794
125042.362056047772
125042.363612705361
125042.364893468402
125042.366142773884
-158142.626407245989
-157853.665549119003
-157370.235886190552
-156609.326373988122
-155558.925397612998
-154184.185769350646
-152238.935867335415
-149612.045133928565
-146193.290056279977
-141906.741974436271
-136758.324101148522
-130949.868803577832
-124681.707133741787
-117892.047688482518
-110732.381099810489
-102856.961132111188
-92480.3841534071107
-76304.0081529775343
-50306.4956464354036
-32328.9164327669641
-20878.2811364213776
-10399.5640181898943
2619.09829064756968
18247.0838527275337
34916.9893176862024
50758.0525136267242
64562.6625510260419
75130.2536007666495
82885.8828488510917
89406.2862668590242
95318.7024392749445
100728.622737206228
105588.185254750671
110019.55957877521
114484.666821836523
117896.695202011804
120153.061702919411
121645.070790326354
122779.906505188002
123337.293344404883
123728.256049999676
124021.159720312571
124253.427957613167
124440.10862511865
124584.543786276088
124691.75865360738
124783.161422470817
124866.862735528455
124945.210486302021
124978.10506929853
124990.026388230355
124999.593381116865
125009.672609986636
125022.290589262178
125031.008929307063
125033.685322516365
125035.587252661513
125037.045281246639
125038.55716915222
125039.812859058715
125040.721318984593
125041.478647991069
125041.893092402359
125042.028761691021
125042.122729851777
125042.194901156938
125042.251770358052
125042.30174255051
125042.334559206764
125042.351282379459
125042.357870029504
125042.360134701172
125042.361918759314
125042.363593577596
125042.365445065952
-158150.050908198318
-157900.916801192478
-157458.223241983505
-156716.221618247335
-155539.351743026142
-154120.214501719689
-152149.730858070165
-149440.104398484138
-145845.801745957899
-141262.15055721227
-135657.325896853639
-129129.353837220449
-122031.185595391042
-114711.727320140111
-107184.811419171238
-98663.6520298305113
-86374.5791836782446
-67182.3076470609521
-50817.5991338492895
-41553.6174598498692
-32458.0047254445053
-19201.1796365427908
-2747.30035480254446
14713.1148536392648
31478.3719505207009
47012.4552655299776
61207.5048000406241
73436.2299319816229
83654.3596148321376
91516.2970796398731
97727.6350214330159
102735.390906751738
106764.073133654369
110592.823220039281
114970.897351811873
118372.638171169296
120575.834226961771
121959.247633986117
122917.39809966457
123454.096942404605
123769.525094436074
124015.845595081817
124217.591856932588
124387.945706992119
124528.673642260736
124640.458173554871
124734.308643229422
124825.147693123887
124919.737629577401
124958.438956145153
124975.421870900434
124989.957518953655
125004.947006904651
125017.712848365991
125023.311413624266
125028.098230114672
125032.339459620154
125036.458456332082
125039.08413440983
125040.467027873441
125041.402788006526
125041.730761963161
125041.894907433903
125042.013023318155
125042.108349511807
125042.188681853862
125042.257144352188
125042.305908727911
125042.331730091333
125042.345645474779
125042.354384022168
125042.357580284879
125042.359550682944
125042.361615424321
125042.364388972564
-158101.215948191792
-157852.197169503255
-157414.736218539794
-156631.569281578355
-155397.181859523844
-153579.636450145365
-151574.481593172939
-148847.424868642614
-145304.530099729629
-140883.623876085476
-135592.320816797263
-129540.521195976937
-123065.05008661341
-116485.156749733869
-109744.230212000592
-101866.303564391506
-89933.8051667121617
-70558.6260383715562
-53473.6262613755389
-44555.9213241020261
-34753.8263774320949
-19799.4580007416189
-2747.41653244625013
14799.0293513522265
32117.7732491610077
48591.3140979793825
63502.6232823860919
76443.7121155658679
87637.3477769365563
97111.01923289978
103414.030129001942
107191.778744450115
109845.587190494174
112981.121873082069
116288.51602623552
118837.475525373258
120548.505861470563
121718.153278915866
122610.618501877034
123255.936789453044
123575.661625665496
123847.486627401013
124080.307852115962
124283.463285310354
124455.06494955685
124592.773543182251
124700.420471979814
124797.284703277634
124898.164165937633
124963.709529106229
124982.973257121441
124996.463443323853
125008.915713337105
125016.905627253087
125022.773286310956
125028.065948403149
125032.991096443875
125037.595817126945
125040.165091579882
125041.220961819839
125041.536311183867
125041.741498583724
125041.889914363273
125042.008694862467
125042.117394694942
125042.218471080283
125042.280273889017
125042.315496906827
125042.334647964046
125042.347381527055
125042.355132937009
125042.35845449155
125042.361491349657
125042.36332079464
125042.364841465213
-158039.25040170984
-157761.951289625053
-157287.320411333407
-156422.024426172255
-154826.622651357553
-152845.496043533349
-150253.7361509935
-146917.295043129387
-142727.415670121292
-137672.856891241012
-131864.379341568565
-125537.669789408232
-119091.895767842099
-112669.297274058423
-105966.466121634279
-97561.6537135214603
-85324.0177969907381
-67584.8580631908117
-57215.616674177385
-48935.7569072642582
-39424.3361571542337
-24710.5953367035218
-6281.73341970327874
13162.2662498796963
31712.5801881345069
48182.4074491489446
62114.9386788195334
73672.9747870734136
83502.4028846463334
92221.6095364817738
99043.1770536493132
104480.083466288372
109076.378729311997
113145.702559245794
116613.914001781668
119164.900086898735
120821.053466549653
121939.751268580658
122811.539339344949
123386.697800565249
123681.88149435971
123930.66598753861
124145.951687295543
124333.636488161719
124493.27689930881
124623.633923183457
124725.792184876715
124816.531198630604
124912.493111758668
124974.012772402202
124991.736764953588
125003.57309517845
125014.053757321351
125021.144555563937
125026.132590508234
125030.276855494885
125034.098527391281
125038.253985907184
125040.535200664861
125041.132156797437
125041.486509543844
125041.728973196485
125041.9160530847
125042.054415541075
125042.170232323668
125042.236921531658
125042.273324165333
125042.298733376709
125042.319445071902
125042.338219090059
125042.35213380662
125042.358918846978
125042.362297995875
125042.363917228358
125042.365285160879
-158141.940019500442
-157924.260231123742
-157579.57021006351
-156957.570831830904
-155806.545830473886
-154425.932254293293
-152177.734707357478
-149582.749010022322
-146240.676159663242
-142117.666253607371
-137285.554693138314
-131992.912880796939
-126217.562883069389
-119768.62615884743
-112725.207799266966
-103951.787434923594
-91757.4488816172816
-74745.0695423084981
-51461.4224078326297
-41246.3417213080393
-32870.9314714097854
-19620.8423483612205
-1552.18421942309192
18387.1805894357421
36820.4245557345421
52016.6116471100249
63899.9599669409363
73605.4903649742191
82628.4166727021657
90957.6530442569492
98012.5945796466403
103911.430946602341
108899.02415095974
113195.774002602295
116791.636393733017
119427.366251062122
121123.110399991259
122247.265060587772
123126.603607303259
123614.075289013621
123880.647971042476
124094.309326346745
124275.861207583235
124433.560480229353
124566.77902312942
124672.649951678322
124756.839463884477
124837.423264137629
124926.028413782115
124979.716045624693
124995.646819695961
125006.458826566712
125015.32963580385
125024.598682842319
125028.711347888951
125031.849231285727
125034.844634137771
125038.313471539339
125039.986871735149
125040.759894500268
125041.259019401652
125041.610959228332
125041.873073906681
125042.004296046376
125042.14903067777
125042.215803556435
125042.258119658814
125042.289270235618
125042.314691833759
125042.337324939464
125042.352276457794
125042.359006266692
125042.36213556341
125042.363873779032
125042.365349673637
-158171.53489954141
-157969.718929140217
-157694.149034536298
-157204.197434090078
-156300.312380145158
-155195.420802524837
-153393.395531019283
-151224.273745088867
-148508.148596801853
-145209.766387004725
-141528.321513693983
-137059.746677504969
-131008.907110297892
-123677.045266052155
-115779.70558519625
-105707.694419254985