/*--------------------------------*- C++ -*----------------------------------*\
  =========                 |
  \\      /  F ield         | OpenFOAM: The Open Source CFD Toolbox
   \\    /   O peration     | Website:  https://openfoam.org
    \\  /    A nd           | Version:  8
     \\/     M anipulation  |
\*---------------------------------------------------------------------------*/
FoamFile
{
    version     2.0;
    format      ascii;
    class       volScalarField;
    location    "0.1";
    object      gas::MW;
}
// * * * * * * * * * * * * * * * * * * * * * * * * * * * * * * * * * * * * * //

dimensions      [1 0 0 0 -1 0 0];

internalField   nonuniform List<scalar> 
1800
(
29.2637880557473586
29.2637880556455521
29.2637880540651771
29.2637880351445077
29.2637878534835245
29.2637864358952413
29.2637773725450714
29.2637293331522592
29.2635154224038025
29.2627086819979034
29.260129141597357
29.2531627685750735
29.237359986096255
29.2074021281476028
29.1601517782542281
29.2637880557489041
29.263788055694711
29.2637880550226477
29.2637880482475445
29.2637879917585124
29.2637876010002067
29.2637853356708568
29.2637741692739368
29.2637268101590742
29.2635528060680628
29.2629978395149486
29.2614641958957655
29.2578098261448716
29.2503556124707096
29.2374717395910828
29.2637880557497958
29.2637880557160059
29.2637880553589191
29.2637880523197644
29.2637880304814182
29.2637878968419116
29.263787193277448
29.2637839615884374
29.263770878713828
29.2637240140292505
29.2635755853135144
29.2631618600617216
29.2621551927109138
29.2600401097566838
29.2562564706807891
29.2637880557501653
29.2637880557234666
29.2637880554623564
29.2637880534815125
29.263788040995145
29.2637879735819055
29.2637876557993657
29.2637863259397264
29.2637813292452691
29.2637644114421285
29.2637129399033071
29.2635732197471086
29.2632381643959647
29.2625360003605657
29.2612641359399781
29.2637880557502719
29.2637880557254206
29.2637880554881633
29.2637880537600665
29.2637880434608313
29.263787991404044
29.2637877628834175
29.2637868756665362
29.263783788791951
29.2637740874231795
29.2637464651211587
29.263675266902144
29.2635095486866881
29.2631616793152745
29.2625030992521893
29.263788055750183
29.2637880557239711
29.2637880554714052
29.2637880536242747
29.2637880426504609
29.2637879877617699
29.2637877510501561
29.263786855177262
29.2637838390979397
29.2637747107008508
29.2637496644439743
29.2636869368603065
29.2635426496317024
29.2632357883039944
29.262633119232504
29.2637880557501049
29.2637880557222694
29.2637880554507461
29.2637880534420063
29.2637880413901854
29.2637879806427144
29.2637877172950134
29.2637867179912021
29.2637833528100408
29.2637731816226925
29.2637453154896221
29.263675492815338
29.2635141763508848
29.2631680043989135
29.262496039677746
29.2637880557501155
29.2637880557224861
29.2637880554527605
29.2637880534583061
29.2637880415103986
29.2637879814081856
29.2637877214894147
29.2637867380554546
29.263783436840896
29.2637734909379468
29.2637463277533918
29.2636784839638828
29.2635222952048579
29.2631893429286585
29.2625716952009576
29.2637880557501759
29.2637880557235128
29.2637880554643068
29.2637880535590753
29.2637880422148768
29.2637879854167871
29.2637877404666789
29.2637868144647726
29.2637837036714394
29.2637743136323571
29.263748604170825
29.2636842149243535
29.2635355877180032
29.2632262772780258
29.2626497967062136
29.2637880557501333
29.2637880557227632
29.263788055454981
29.2637880534716643
29.2637880415762304
29.2637879816807853
29.2637877224258602
29.2637867406185634
29.263783441967071
29.2637734969089145
29.2637463296361808
29.2636785060063147
29.2635227356765881
29.263213617776703
29.2626346337980578
29.2637880557501511
29.2637880557230545
29.2637880554585124
29.2637880535030952
29.2637880417921572
29.2637879828588723
29.2637877276517067
29.2637867598062229
29.2637835008778673
29.263773647759713
29.2637466416924994
29.2636789881476318
29.2635253533973199
29.263227526841959
29.2626761147273697
29.263788055750183
29.2637880557235484
29.2637880554645022
29.2637880535584642
29.2637880421890273
29.2637879851176557
29.263787738203785
29.263786801549827
29.2637836442631283
29.2637740838084675
29.2637478343216344
29.263682035807058
29.2635346916614409
29.263238786344079
29.2626757172426366
29.2637880557501155
29.263788055722479
29.2637880554519505
29.2637880534437791
29.2637880413491978
29.2637879801017391
29.2637877131254704
29.2637866938059439
29.2637832378497578
29.2637727153587655
29.2637436810291831
29.2636707970750365
29.2635084769070133
29.2631753333516613
29.2625283321130141
29.2637880557500871
29.2637880557219781
29.2637880554465433
29.2637880533970076
29.2637880410203088
29.2637879782490984
29.2637877043946055
29.2637866579131725
29.2637831041407708
29.2637722506713409
29.2637421829401596
29.2636662520320456
29.2634920253056237
29.263120906059207
29.2623736932453902
29.2637880557501866
29.2637880557239463
29.2637880554717462
29.2637880536323074
29.2637880427320951
29.2637879882520764
29.263787753020587
29.2637868602666664
29.2637838460555386
29.2637747184361139
29.2637497669695286
29.26368794558174
29.2635478961621409
29.2632514838408895
29.2626570291725088
29.2637880557502825
29.2637880557258079
29.2637880554935066
29.2637880538159401
29.2637880439258176
29.2637879945641011
29.2637877808959743
29.2637869647053712
29.2637841810368116
29.2637756499935477
29.2637520908050703
29.2636933091046316
29.2635597468696815
29.2632789394866393
29.2627283579710173
29.2637880557502115
29.2637880557246177
29.2637880554786562
29.2637880536591197
29.2637880425525978
29.2637879846668767
29.2637877213616555
29.2637866585971764
29.2637828112123124
29.2637702717230965
29.2637335526086808
29.2636374277324229
29.2634133044065585
29.2629481108692318
29.2620918180512284
29.2637880557498775
29.263788055717999
29.2637880553882255
29.2637880526563983
29.2637880335415232
29.2637879190166466
29.2637873255955014
29.2637846346137671
29.2637738619844967
29.2637356523546082
29.2636156507553942
29.2632833277556337
29.2624771327860387
29.2607785033489556
29.2577118813398585
29.2637880557488756
29.2637880556939152
29.2637880550099894
29.2637880480870542
29.2637879900888045
29.2637875873224544
29.2637852468623763
29.2637737023289084
29.2637247793465392
29.2635452433306327
29.2629725141727697
29.2613853737951395
29.2575805246526173
29.2497438047550773
29.2360742318715445
29.263788055747483
29.2637880556489201
29.2637880541254489
29.2637880359341658
29.2637878613760414
29.2637864981082636
29.2637777745379424
29.2637315672296516
29.2635263909802674
29.2627554458957349
29.2602958091443135
29.2536473632083229
29.2384821287209249
29.2093806520481358
29.1628840793471369
29.1108750032255301
29.0546860013327795
28.997579001036712
28.9455714006096088
28.9020171960350218
28.866282437374764
28.8332422900756207
28.7851299112949874
28.7057054341333071
28.6041163541706638
28.5015943919630352
28.4211305653957105
28.361867009392725
28.3001704092988362
28.2356253934866253
28.1767451036122871
28.1304490138762482
28.0982366849430463
28.0775225530268742
28.064456957291597
28.05658597178072
28.0512248938821287
28.0465573018981011
28.0424858692273276
28.0390175384147859
28.0360244419208833
28.0329657378449788
28.0292967502622048
28.0255424093059524
28.0222586471275328
28.0206733796035969
28.0193437669323053
28.0180556350389942
28.0169767411892785
28.0160929471526927
28.0153672248531365
28.0148209587543384
28.0145189278692435
28.0143135318102168
28.0141635659723427
28.0141090552085039
28.0140795194287655
28.014056549414029
28.0140389466799462
28.0140268787729134
28.0140185382376004
28.0140126960339835
28.0140085311784759
28.0140055149484333
28.0140035738290791
28.0140024279906363
28.0140017596836728
28.014001309795951
28.0140009558143852
28.0140006463839022
28.0140003926551842
28.0140002293975741
28.0140001516313362
28.0140000918756371
28.014000037466122
28.0139999932116588
28.0139999685292871
28.013999955218658
28.0139999488291025
28.0139999456597302
28.0139999438871818
28.013999942799213
28.0139999418439345
28.0139999409245313
28.0139999403062916
28.0139999399822415
28.0139999397452577
28.0139999395484125
28.0139999393928179
28.013999939246677
29.2230659701800732
29.2050788956114005
29.185074602476984
29.1653621444934039
29.1476958420005232
29.1319259636700245
29.1161501439830914
29.0998764322265835
29.0775415171763321
29.039010181731701
28.9728996436858424
28.8984178711295847
28.8206768661499844
28.7352934685965984
28.6433268252954178
28.5498725186816706
28.4621127578230073
28.3859630597445332
28.3241385402558592
28.2763249025062429
28.2394252532743018
28.2102112495473492
28.1835292037893872
28.1565627496638982
28.131786591356839
28.1144177093534005
28.1043584498747023
28.095468506406533
28.0859658376120009
28.0730074972260084
28.0563374641753427
28.045543720456763
28.0406847642490291
28.0363584892017279
28.0298449965071654
28.0254821826332687
28.0230978809443307
28.0209468139707312
28.0190941141151377
28.0163156392211903
28.0154640983836316
28.014979106143798
28.014688131758426
28.014488594111647
28.0143375365220315
28.0142506053683995
28.0141861583212197
28.0141308167140828
28.0140838439260982
28.0140526768322822
28.0140348591270403
28.0140244908406117
28.0140177786699702
28.0140130863181547
28.0140097619972934
28.0140073854560718
28.0140046156636977
28.014002516992246
28.0140019076369313
28.0140015127123121
28.0140010905267971
28.0140006633543805
28.0140003195877618
28.0140001384463098
28.0140000487834833
28.0140000053490041
28.0139999832787971
28.0139999710627592
28.013999964984805
28.013999959785103
28.0139999527519343
28.013999948459567
28.0139999464891076
28.0139999446827517
28.0139999431723687
29.2519255500009088
29.2463317518129209
29.2398398100546899
29.2330601533578474
29.2264674292866324
29.2199693925835398
29.2129858136955889
29.2050455194500422
29.1937600489671638
29.1736244177542297
29.1424198689592977
29.1027727640543716
29.0519306811889244
28.9879440269305491
28.9100459155864442
28.8207420229610491
28.7267963689920407
28.6377421648339237
28.5613615738210278
28.5017044749838782
28.4564204907305935
28.4185144653972017
28.3775270501905297
28.328107727673828
28.269960514920232
28.2193004338056888
28.1893436515638278
28.1670434358735768
28.147377613850086
28.1292643237297604
28.1040008728299391
28.0808129883018225
28.0692801833351879
28.0573329646329412
28.0460059291723631
28.0372141429560351
28.0311274708684195
28.0278886185354601
28.0243413086212243
28.0211230681359602
28.0187216113196911
28.0170824023609519
28.0160805975528966
28.0153792020208243
28.0149612949571889
28.0147560711576027
28.0145954567624464
28.014453769660097
28.0143179189107521
28.0142010582226746
28.01411909913692
28.0140769342732447
28.0140552913813465
28.014041919405507
28.0140315944914029
28.014023472468093
28.0140170395843739
28.0140102552271948
28.0140057687615283
28.0140044563836774
28.0140036200373181
28.0140028098348104
28.0140016959132296
28.0140009619442978
28.0140005287222991
28.014000276967181
28.0140001377223911
28.0140000626168799
28.0140000273858902
28.0140000031557435
28.0139999825080324
28.0139999672102746
28.0139999613362782
28.0139999570348728
28.0139999530578905
29.2597837988920801
29.2577926880116443
29.2552866752571354
29.2522587553679898
29.2485960937689136
29.2440251614937452
29.2382312640223496
29.231058475206698
29.2208627000129866
29.2050590882182988
29.1840044778177976
29.1566242935987567
29.1218625851385511
29.0784405253160934
29.0252760134881811
28.9609330479376865
28.8878720193386194
28.8114226668759592
28.739066290777334
28.6764579104903312
28.6274551383914044
28.5769434360482393
28.5169606412206171
28.4462546960273173
28.3639382909099318
28.295468739275222
28.244276953657053
28.2080383960388765
28.1827939005280825
28.1579806724748707
28.131758851307854
28.0921827773114892
28.073191712273907
28.0617305964814641
28.0529307357771991
28.0460825784667449
28.0396158072210433
28.0327273855406141
28.0269143495825936
28.0230009795233279
28.0202324592892253
28.0181398208738059
28.0164649549696954
28.0158050133067569
28.0154432233095108
28.0151617080521582
28.0149240337524361
28.0147192944227612
28.0145276198401589
28.0143356863530641
28.0141901527871511
28.0141087777760553
28.0140723994295335
28.0140555223877818
28.0140426670304095
28.0140326397883079
28.0140229775235952
28.0140151971741851
28.0140094180311046
28.0140058829700784
28.0140048154812504
28.0140039231218694
28.0140025003924862
28.0140014939536641
28.0140010211463988
28.0140006588138526
28.0140003883135655
28.0140001960224616
28.014000088700481
28.014000027317504
28.0139999910357069
28.0139999703515237
28.0139999640333279
28.0139999592343969
28.0139999550378995
29.2616885952310106
29.2604788617054119
29.2587219202076945
29.2561927757270546
29.2525498241812585
29.2473134947476616
29.2399170008220324
29.2298940048376004
29.2170831419546531
29.200588951103061
29.1794833753727509
29.1531059312718135
29.121066509891655
29.0833655502080717
29.0400869600439222
28.9893754417816076
28.9325339723587263
28.8729747402240946
28.8137855443934647
28.7628781007070771
28.7145675683546315
28.653610139270949
28.5823278023529816
28.4909723761136853
28.4070978486038719
28.3350437016232988
28.2725527647675818
28.2299315031573101
28.2070359227576546
28.1805165878922494
28.1387012525035587
28.1023466472436354
28.0872585810007784
28.0736603902868325
28.0594511386160761
28.0512503540718541
28.0440585018481627
28.0356876396646975
28.0285216052625898
28.0239071033997575
28.0203221610691031
28.017635067107733
28.0165361996580344
28.0160436089054912
28.0156507645295214
28.015318502109416
28.0150362619632247
28.0147976872713649
28.0145802751187745
28.0143603715511205
28.0142110032123846
28.0141191683039139
28.0140780153247277
28.0140598738246993
28.0140430136882408
28.0140325814058606
28.0140235746627546
28.014015251111438
28.0140099523408104
28.0140061931563302
28.014003947985227
28.014002796276543
28.0140022953555388
28.0140018368650701
28.0140014469619558
28.0140010594823075
28.0140006795026899
28.0140003333107046
28.0140001460527017
28.0140000459130114
28.0139999932440595
28.0139999716618675
28.0139999648021885
28.0139999593648064
28.0139999544122951
29.2618468369562059
29.2606234513319414
29.2587404927147929
29.2559018628530794
29.251709528357118
29.2456669611063695
29.2372276212923872
29.2259447735124027
29.2118388684168941
29.1946084609919581
29.1734534328198549
29.1478840052448902
29.1177160607144963
29.0832233259709128
29.0446456443791448
29.0001798320547834
28.9506162960447959
28.8969782911246114
28.83659611895688
28.7749627214852346
28.7139953457943093
28.63846273139659
28.5473457851354837
28.4562568720627169
28.3684198633388895
28.3007062326511907
28.2570359111704335
28.2316185724208601
28.196224357049207
28.1489368308115182
28.1264604224005694
28.0980839673933573
28.082905606196249
28.0693337331617627
28.0585289339188648
28.0478878184751963
28.0407102305159448
28.0343177038449056
28.0283239568848117
28.0232773848540297
28.0193564885457995
28.0172905604871048
28.0166196567508834
28.0161218745939387
28.0157146012851648
28.0153597376339079
28.0150610808299056
28.0148062250319185
28.0145684380517608
28.0143435843286603
28.0141968177437413
28.0141107563770468
28.0140706740371819
28.0140529507964082
28.0140411500975688
28.0140300631899422
28.0140189999057512
28.0140130004616559
28.0140096518664272
28.0140061431104144
28.014003776645616
28.0140024088450552
28.014001952794704
28.014001636669267
28.0140013515959296
28.0140009236537111
28.0140005139022108
28.0140002445146727
28.0140001030803987
28.0140000270782039
28.0139999854438173
28.013999964232994
28.013999955334409
28.013999952139784
28.0139999486965898
29.2615625403098818
29.2601432075739503
29.2579496399800831
29.254649274924823
29.2498215332454627
29.2429666620546094
29.2335499863572963
29.22111482366671
29.2055427322093344
29.1872001068377891
29.1653904950637113
29.1396125839343547
29.1096638157930698
29.0755911833343212
29.0374442578289518
28.9932765283682947
28.9422098061215785
28.8853002031249737
28.8207784563162832
28.7490407082578514
28.6724269989093123
28.6003138856227537
28.5213028885546684
28.414697500125186
28.3320775727164929
28.2867705755594478
28.2580465493609232
28.2218574149780395
28.177486941168965
28.1511811783571488
28.1233725659357638
28.0989478348927051
28.0813994440646866
28.0669792706580807
28.0549469502024635
28.0455766829683917
28.0376572812311871
28.0310466553021449
28.0255413749457176
28.0210051386900147
28.01799799687182
28.017093869465846
28.0164916479795565
28.01604591392298
28.0156641896824041
28.015332980399652
28.0150579085302844
28.0148132729403727
28.0145598544877714
28.0143299651024584
28.0141835948814624
28.0141002707912001
28.0140681511648495
28.0140529051550651
28.0140377530688873
28.0140253145617102
28.0140184647463251
28.0140137969447203
28.0140086966715387
28.0140043574954412
28.0140029264491055
28.014002182269671
28.014001692703097
28.0140013764843765
28.014001046032508
28.0140006299740456
28.0140003205471935
28.0140001499788447
28.0140000579141635
28.014000007685798
28.013999979538589
28.0139999636183497
28.0139999544597025
28.013999948326159
28.0139999446105286
29.2616566520498189
29.2602918939735872
29.2582346720226028
29.2551529787677467
29.2506598634376296
29.2442804579605991
29.2354758614156793
29.2237134172789013
29.2086308837578876
29.1904329064394936
29.1690953208277008
29.1438150956611643
29.1141766994954594
29.0799960121072409
29.0411688187387433
28.9958201531765525
28.9419026853589187
28.8817811597043352
28.8145576547452791
28.7384807110144607
28.6571472918935477
28.573249846922625
28.470814859988991
28.4010563237968867
28.358866986099116
28.3215578893906859
28.2763518735217474
28.2268052143732291
28.17703977391621
28.1472312515788445
28.1155930611492373
28.0949570450967414
28.0788386436833406
28.0657468307013076
28.0519813358840793
28.0425586951775614
28.0363758016136302
28.0308224290919021
28.0249912602572806
28.0201852908980591
28.0181107896232611
28.0172956356846612
28.0166663785465531
28.0161639065455645
28.015742658806758
28.01539503369413
28.0151154258535513
28.014857503919611
28.0145514722336024
28.0142914017106435
28.0141709463301076
28.0141309377418928
28.0141016052054752
28.0140712929965083
28.01403873223855
28.0140275497917699
28.0140208754992202
28.0140154125352865
28.0140078298033046
28.014004033427863
28.0140029584704493
28.0140022442853827
28.014001687841084
28.0140013128479382
28.0140008312505167
28.0140004214775118
28.0140002082170909
28.0140000968666989
28.0140000347920228
28.0139999974622249
28.0139999754680993
28.013999962812143
28.01399995516174
28.0139999498561778
28.0139999453474218
29.2617831058526008
29.2604057589334161
29.2584017335793725
29.2553988569814152
29.250999380188432
29.2447193292367622
29.2359943825953152
29.2242148738856109
29.2088238605199955
29.1895695632127214
29.1669178025724527
29.1401829808463155
29.1084902253943127
29.0712965594434749
29.0282527676928446
28.976956793967009
28.9132286552483997
28.8410120612652534
28.7658899479912762
28.6918203816731356
28.6129010761851177
28.5267705674403622
28.4419551844787222
28.4033599797109382
28.3716453710101497
28.3448113911202597
28.3084806061070502
28.2557384102653124
28.2067820800118163
28.1668935735452131
28.1330740718961714
28.1048106493397398
28.0830851644924984
28.0674867116519664
28.0547888938983725
28.0438495953624454
28.0352337087375396
28.028704527590385
28.0233396921250204
28.0200496877201353
28.0187590474779604
28.0177638459926541
28.0170133750854973
28.0164242825268346
28.0159341903777026
28.0155367343166333
28.0152107076399766
28.0148974972224778
28.0145230845629207
28.0142733414349649
28.0141895924119382
28.0141469320360983
28.0141132545816625
28.0140780771964018
28.0140419790430606
28.0140281374928044
28.0140226214667685
28.0140140608616761
28.0140072818197616
28.0140049072852904
28.0140037432928253
28.0140029073930528
28.0140021806337529
28.0140013303097071
28.0140006103895871
28.0140002857230677
28.0140001956379514
28.0140001349420054
28.0140000547699124
28.0139999961604289
28.0139999797425929
28.0139999691596557
28.0139999609501196
28.0139999541206137
28.0139999477509853
29.2617590503441569
29.2603115906887083
29.2581912750484747
29.2551367378206209
29.250678008643721
29.2443316931347645
29.2355293216734964
29.2236615345036448
29.2081658065245975
29.1886999131722114
29.1655236746540041
29.1393670285349096
29.1092866653391802
29.0749240948460717
29.0362486696438147
28.9916027594795729
28.9386312810452289
28.8772135338601501
28.7917182373420282
28.6791744566405704
28.5803285710804538
28.5043937910403749
28.4707075726349679
28.4364814694334243
28.3919946352886221
28.3407456458369857
28.2838185900359527
28.2330978952512872
28.1926715114272426
28.160546266726346
28.1353716349152343
28.1149228262914583
28.0966698177109144
28.0789952255343742
28.0598140220634313
28.0448885997678694
28.0349956531603723
28.0283958059585103
28.0232829287284382
28.0209853543940923
28.0194364009594494
28.0182805943951116
28.0173350517529762
28.016577820016483
28.0159908335681074
28.0155422470348086
28.0151667557462751
28.014814622865913
28.0144463973268358
28.0142547357015488
28.0141966820108195
28.014155896171328
28.0141207174090638
28.0140833716979643
28.0140475449283564
28.0140289157108704
28.0140175212937343
28.0140127385469668
28.014010339311632
28.0140082700900663
28.0140063403587014
28.0140043960204892
28.0140022944227134
28.0140010303160345
28.0140006669933257
28.0140004461910195
28.0140002985790524
28.0140001885300691
28.0140000648830423
28.0139999931122148
28.0139999729837932
28.0139999635735393
28.0139999570064333
28.0139999516032461
28.0139999463327776
29.2618963340522065
29.2605663240232694
29.2583414960851904
29.2548403425776513
29.2500085359096715
29.2436871939966494
29.2347471927956839
29.222683170164629
29.2069974055748638
29.1873538528212606
29.1637955900941961
29.1372627249652894
29.1086840417820163
29.0777908575184796
29.045285080405872
29.0096135278733485
28.9627465982752703
28.8899855404072774
28.7738120000457229
28.6940215828271761
28.6434301789157004
28.5972889976567686
28.5401702747479789
28.471903910595536
28.3994452660214094
28.3309302567182151
28.2714922259475898
28.2261599804864396
28.1929827166707092
28.1651498294412228
28.1399596515124273
28.1169498302138514
28.0963128849246644
28.077520702212162
28.0586108768000919
28.0441780227818782
28.0346417630269045
28.0283395286318786
28.023547888591601
28.021195022650101
28.019544909352696
28.0183087953930645
28.0173286530113863
28.0165409340741469
28.0159315049374769
28.0154791401032668
28.0150935017804876
28.0147403660583052
28.0144098250745479
28.0142710485868207
28.0142207549684166
28.0141803939030645
28.0141378719511494
28.0140846397762324
28.0140478593456415
28.0140365683515746
28.0140285446175703
28.0140223935885047
28.0140160153443531
28.014010717932134
28.0140068853894633
28.0140036904274012
28.0140019420011157
28.0140013696499821
28.0140009732243591
28.0140006687536385
28.0140004288382585
28.0140002180194401
28.0140000795750765
28.0140000090246524
28.0139999812331872
28.0139999716791621
28.0139999641527204
28.0139999570871296
28.013999949276208
29.2619305086499928
29.2607838007092234
29.2587464041139995
29.255332146345939
29.2499185129513855
29.2433931071833797
29.2343373544950182
29.2218938777459272
29.2054040194446749
29.1844022307665973
29.1587625493276761
29.1289565966767583
29.0966162697097381
29.0633428304484731
29.0292055844192873
28.990655744283476
28.9352397735137785
28.8491172599665191
28.776086933437675
28.7349084882011567
28.6945929417950865
28.6360353528174549
28.5636874126294416
28.4873124483301119
28.4143616074258709
28.3471006752591457
28.2859154589029593
28.2334171191228229
28.1896995501051144
28.1561548371779473
28.1297091748583483
28.1084240799014964
28.0913238315165437
28.0750914923430557
28.0565532177746739
28.042165967592954
28.0328556875419075
28.0270128093021071
28.022967466289451
28.0207020162151537
28.0193707388639268
28.0183312211272302
28.0174798723185106
28.0167610365974689
28.0161672400535267
28.0156955871158218
28.0152996157019771
28.0149163606507656
28.0145172915428589
28.0143540163105342
28.0142823684796909
28.0142210455133593
28.0141578081692444
28.0141039521244082
28.0140803331762527
28.0140601388249344
28.014042246189522
28.0140248692441034
28.0140137922218386
28.0140079581736465
28.0140040104597041
28.0140026268282938
28.0140019343440017
28.0140014360458132
28.0140010338910308
28.0140006949911502
28.0140004061668684
28.0140002004434976
28.0140000915103293
28.0140000328051926
28.013999995939681
28.0139999824555375
28.0139999741429726
28.0139999654324043
28.0139999537315738
29.2617057252934174
29.2605595657709294
29.2585462802663621
29.2549426764112681
29.2492646632602984
29.2409082139636105
29.2316947387150279
29.2191735143849591
29.2029223981150388
29.1826692130032335
29.1584654431011785
29.1308321402221111
29.1013222437871057
29.0713976550959678
29.0408044589543763
29.0051325679272338
28.9512678327334072
28.8642308144053352
28.7879147656208758
28.7482408300462495
28.704758302945919
28.6386728972169813
28.5636879221735924
28.4869376528006768
28.4115867695802535
28.3402822070456679
28.2760475585485445
28.2205357369786398
28.1726952577615002
28.1323322837757139
28.1055420523931652
28.0895096028975679
28.0782579949298992
28.0649755770249953
28.0509787580807171
28.0402011402052587
28.0329711340578882
28.028030901582035
28.024262572817122
28.0215384239070033
28.0201889325405524
28.0190417185380447
28.0180591913013295
28.0172019127607079
28.0164778261885097
28.0158967811327493
28.0154425944846359
28.01503391505425
28.014608307654548
28.0143317806818715
28.0142505106713315
28.0141935984180925
28.0141410651198086
28.0141073575919037
28.0140826033992205
28.0140602750131009
28.0140394971066264
28.0140200710269234
28.014009231959843
28.0140047775341579
28.0140034471623309
28.0140025815334646
28.0140019554083821
28.0140014543063707
28.0140009957319087
28.0140005693186716
28.0140003085897646
28.0140001599936284
28.0140000792006312
28.0140000254812627
28.0139999927802172
28.0139999787675009
28.0139999659558399
28.0139999582379176
28.0139999518226332
29.2614205078842957
29.2601442129393163
29.2579599385449676
29.2539786434194902
29.2466409137741863
29.237534242294025
29.2256292236152042
29.2103178441826223
29.1911126300579653
29.1679775546416948
29.1414369814454872
29.1125833614229172
29.0832454365690722
29.0540717475832544
29.0236874937240756
28.9856777644576269
28.9305122320612789
28.8509183820602857
28.8045951231988013
28.7677125859064269
28.7254604734920385
28.6603423050694381
28.5791975186215872
28.4940796047974167
28.4133451407654931
28.3420477987170791
28.28201310861688
28.2324026880660774
28.1903486948375885
28.1531493658715775
28.1241144397402927
28.1010159578248881
28.0815183545201741
28.0642787449625217
28.049602435362317
28.0388173101054647
28.0318198208270992
28.0270951357273894
28.0234143480992692
28.0209864934395405
28.019740629553155
28.0186906859851632
28.0177821806604683
28.0169901991562007
28.0163165929887867
28.0157665727301683
28.0153355476555248
28.0149527136746137
28.0145478553146816
28.0142883131962179
28.0142135392519194
28.0141636043879529
28.0141193889369156
28.0140894746043436
28.0140684313508679
28.0140509477727448
28.014034825150457
28.0140172943918273
28.0140076705714058
28.0140051521780258
28.0140036572616822
28.0140026343746023
28.0140018451363524
28.0140012614234948
28.0140007728246019
28.0140004914813332
28.0140003379087226
28.0140002307143092
28.0140001433374159
28.0140000641350433
28.0140000054327167
28.0139999768085168
28.0139999625528233
28.013999955721733
28.0139999499508043
29.2618931746485877
29.2608912414209357
29.2593048477561268
29.2564426069136267
29.2511474372001317
29.2447985971771018
29.234466012512236
29.2225486835545567
29.2072147050891147
29.1883198171647642
29.1662063574061783
29.142023764873656
29.1156813444563198
29.0863227949144942
29.0543254602068259
29.0145672765140397
28.959487025167018
28.8829927705999943
28.7789531176755418
28.7335446652414355
28.6964207537607088
28.6378854090207504
28.558446708199078
28.4712934151501038
28.3911951066354256
28.3255009701783358
28.2743399019357184
28.2326918455010194
28.1940828615520545
28.1585357817308086
28.1284971104398736
28.1034300787565776
28.0822701953491389
28.0640667501162646
28.0488507871402177
28.0377081193837547
28.0305439628586264
28.0257966674146708
28.0220843490252065
28.0200268052838446
28.0189017703730912
28.0180001059735559
28.0172339911848596
28.0165685639185575
28.0160064600775272
28.0155597631576683
28.0152045559268608
28.0148645701317704
28.0144907515155026
28.0142642521950087
28.0141970435745407
28.0141514301513368
28.0141140063149052
28.0140749025146398
28.0140575522403594
28.0140443143331765
28.014031677525729
28.0140170434381517
28.0140099838204044
28.0140067226499951
28.0140046169797259
28.0140031322428769
28.0140020264536105
28.0140014728637539
28.014000862268464
28.0140005805722083
28.0140004020523143
28.0140002706366751
28.0140001633900084
28.0140000679072152
28.0140000048309048
28.0139999764397132
28.0139999632380849
28.0139999559050352
28.0139999496786416
29.2620293988119613
29.2611004723583363
29.2598321636957301
29.2575774361165344
29.2534187236093075
29.2483367995821055
29.2400522119028814
29.2300861661132352
29.2176164846682447
29.2024879689854124
29.185620970887058
29.1651737991351787
29.1375321674727736
29.1041086583355977
29.0681929977198976
29.0225157432708158
28.9650696469020907
28.8824982024666248
28.7492079006291128
28.6867385902729382
28.6420449434902658
28.5849238327834172
28.5103121062581017
28.4337625589769516
28.369120066324097
28.3199519223329084
28.280922029303273
28.2446097730892696
28.2087762105247108
28.1740844882913919
28.1418326493777435
28.1131709396750153
28.0884356649692748
28.067293449057356
28.0499969381825807
28.0378336528350047
28.0302025734003522
28.0252030433515635
28.0211499963869777
28.0195015816508963
28.0183887346742075
28.0175501789593397
28.0168430648272171
28.0162448954649683
28.015756663739154
28.0153914712273
28.0150953975493593
28.0147698543901207
28.0144289178979378