/*--------------------------------*- C++ -*----------------------------------*\
  =========                 |
  \\      /  F ield         | OpenFOAM: The Open Source CFD Toolbox
   \\    /   O peration     | Website:  https://openfoam.org
    \\  /    A nd           | Version:  8
     \\/     M anipulation  |
\*---------------------------------------------------------------------------*/
FoamFile
{
    version     2.0;
    format      ascii;
    class       volScalarField;
    location    "0.1";
    object      gas::mu;
}
// * * * * * * * * * * * * * * * * * * * * * * * * * * * * * * * * * * * * * //

dimensions      [1 -1 -1 0 0 0 0];

internalField   nonuniform List<scalar> 
1800
(
3.893983958673774e-05
3.89398395869452969e-05
3.89398395901672815e-05
3.89398396287418395e-05
3.89398399991035059e-05
3.89398428892145758e-05
3.89398613671487921e-05
3.89399593079093963e-05
3.89403954264601473e-05
3.89420402870768032e-05
3.89473006422615657e-05
3.8961514036765778e-05
3.89937949410182149e-05
3.90551387861109449e-05
3.91522873385335621e-05
3.89398395867345754e-05
3.89398395868450556e-05
3.89398395882152365e-05
3.89398396020279925e-05
3.89398397171951185e-05
3.89398405138543591e-05
3.89398451322996202e-05
3.89398678978323043e-05
3.89399644516990061e-05
3.89403192084059675e-05
3.89414507086066993e-05
3.89445779401729716e-05
3.89520315513046012e-05
3.8967244387871649e-05
3.89935664693435641e-05
3.89398395867327594e-05
3.89398395868016401e-05
3.89398395875296683e-05
3.89398395937257414e-05
3.89398396382487205e-05
3.89398399107065106e-05
3.89398413450999675e-05
3.89398479337137637e-05
3.89398746064789227e-05
3.89399701523515551e-05
3.89402727660815144e-05
3.89411162864672638e-05
3.89431688755709061e-05
3.89474822269046938e-05
3.89552007116048229e-05
3.89398395867320072e-05
3.89398395867864477e-05
3.89398395873187842e-05
3.8939839591357234e-05
3.89398396168138267e-05
3.89398397542526948e-05
3.89398404021324616e-05
3.89398431133866225e-05
3.89398533004114235e-05
3.8939887791669621e-05
3.89399927299121309e-05
3.89402775889930006e-05
3.89409607112280626e-05
3.89423923853120214e-05
3.89449859169151301e-05
3.89398395867318039e-05
3.89398395867824565e-05
3.89398395872661665e-05
3.89398395907893222e-05
3.89398396117869166e-05
3.89398397179177799e-05
3.89398401838146594e-05
3.89398419926298826e-05
3.89398482860030742e-05
3.89398680647059264e-05
3.89399243798910127e-05
3.89400695365742084e-05
3.89404074018595182e-05
3.89411166549887138e-05
3.89424594714699867e-05
3.89398395867319734e-05
3.89398395867854177e-05
3.89398395873003257e-05
3.893983959106618e-05
3.89398396134390713e-05
3.89398397253434806e-05
3.89398402079397434e-05
3.89398420344024305e-05
3.89398481834416009e-05
3.89398667939955896e-05
3.8939917857238125e-05
3.89400457441570211e-05
3.8940339915383787e-05
3.89409655557711778e-05
3.89421943589323644e-05
3.89398395867321428e-05
3.8939839586788894e-05
3.89398395873424537e-05
3.89398395914377767e-05
3.89398396160084407e-05
3.89398397398574783e-05
3.89398402767581007e-05
3.89398423140908123e-05
3.89398491748624338e-05
3.89398699114112035e-05
3.89399267237148782e-05
3.89400690759877986e-05
3.89403979669260115e-05
3.89411037588661759e-05
3.89424738661437806e-05
3.89398395867321157e-05
3.89398395867884467e-05
3.89398395873383473e-05
3.89398395914045459e-05
3.89398396157633703e-05
3.89398397382968641e-05
3.8939840268206761e-05
3.89398422731847656e-05
3.89398490035442943e-05
3.89398692807931549e-05
3.89399246599510387e-05
3.8940062977706732e-05
3.89403814141268208e-05
3.89410602521065389e-05
3.89423196029295988e-05
3.89398395867319801e-05
3.89398395867863461e-05
3.89398395873148133e-05
3.89398395911991031e-05
3.89398396143271006e-05
3.89398397301243175e-05
3.89398402295168167e-05
3.89398421174051067e-05
3.8939848459542744e-05
3.89398676035208744e-05
3.89399200188808703e-05
3.8940051293568971e-05
3.89403543132510983e-05
3.89409849475307789e-05
3.89421603535955557e-05
3.8939839586732075e-05
3.89398395867878775e-05
3.89398395873338072e-05
3.89398395913772985e-05
3.89398396156291461e-05
3.89398397377410885e-05
3.89398402662975758e-05
3.89398422679592296e-05
3.89398489930932969e-05
3.8939869268619821e-05
3.89399246561124819e-05
3.89400629327671754e-05
3.89403805160891544e-05
3.89410107586571271e-05
3.89421912707336274e-05
3.89398395867320479e-05
3.8939839586787288e-05
3.89398395873266244e-05
3.89398395913132425e-05
3.89398396151889261e-05
3.89398397353392758e-05
3.89398402556433718e-05
3.89398422288403479e-05
3.89398488729887209e-05
3.89398689610720038e-05
3.89399240199042869e-05
3.89400619497893365e-05
3.8940375179057692e-05
3.89409823998294102e-05
3.89421066913225324e-05
3.89398395867319801e-05
3.89398395867862716e-05
3.89398395873143932e-05
3.89398395912003568e-05
3.89398396143798064e-05
3.89398397307341745e-05
3.8939840234130307e-05
3.89398421437354782e-05
3.89398485806616046e-05
3.89398680720754519e-05
3.89399215884189421e-05
3.89400557362975589e-05
3.89403561401367599e-05
3.89409594431567755e-05
3.89421075017901922e-05
3.89398395867321089e-05
3.89398395867884603e-05
3.89398395873399939e-05
3.89398395914341514e-05
3.89398396160920259e-05
3.89398397409603829e-05
3.89398402852587675e-05
3.89398423633985518e-05
3.89398494092380495e-05
3.89398708620091819e-05
3.89399300559894657e-05
3.89400786495530465e-05
3.89404095870165621e-05
3.89410888159800073e-05
3.8942408021033973e-05
3.89398395867321631e-05
3.89398395867894699e-05
3.89398395873510189e-05
3.89398395915295138e-05
3.89398396167625236e-05
3.8939839744737479e-05
3.89398403030588396e-05
3.89398424365750291e-05
3.89398496818376262e-05
3.89398718093930768e-05
3.89399331102358018e-05
3.89400879158846518e-05
3.89404431287664992e-05
3.89411997872033473e-05
3.89427233357116274e-05
3.89398395867319734e-05
3.89398395867854652e-05
3.89398395872996413e-05
3.8939839591049795e-05
3.89398396132726191e-05
3.89398397243438733e-05
3.89398402039225236e-05
3.89398420240264124e-05
3.8939848169256767e-05
3.89398667782252727e-05
3.89399176482131145e-05
3.89400436876025162e-05
3.89403292187364837e-05
3.89409335546310841e-05
3.89421456066292462e-05
3.89398395867317701e-05
3.89398395867816772e-05
3.89398395872552635e-05
3.89398395906754064e-05
3.89398396108389241e-05
3.89398397114752067e-05
3.89398401470915256e-05
3.8939841811101757e-05
3.8939847486312777e-05
3.89398648790082355e-05
3.8939912910470493e-05
3.89400327525979257e-05
3.89403050574881778e-05
3.89408775762994745e-05
3.89420001681310468e-05
3.89398395867319056e-05
3.89398395867840896e-05
3.89398395872855399e-05
3.89398395909951308e-05
3.8939839613638578e-05
3.89398397316531984e-05
3.8939840268467227e-05
3.89398424351805147e-05
3.89398502790464049e-05
3.8939875843984687e-05
3.89399507054333718e-05
3.89401466823228329e-05
3.89406036268164895e-05
3.89415521016796734e-05
3.89432981034289891e-05
3.893983958673259e-05
3.89398395867975879e-05
3.89398395874699288e-05
3.89398395930394347e-05
3.89398396320099298e-05
3.8939839865497733e-05
3.89398410753362707e-05
3.89398465615815517e-05
3.89398685243201592e-05
3.8939946424548311e-05
3.89401910809309884e-05
3.89408686292301793e-05
3.89425124178883884e-05
3.89459762898052727e-05
3.89522313632607259e-05
3.89398395867346432e-05
3.89398395868466887e-05
3.89398395882410405e-05
3.89398396023551979e-05
3.89398397205992423e-05
3.89398405417399238e-05
3.89398453133581304e-05
3.89398688498187866e-05
3.89399685920490359e-05
3.89403346273392757e-05
3.89415023450615294e-05
3.89447386788794759e-05
3.89524993402464204e-05
3.89684935184677207e-05
3.89964237631951926e-05
3.89398395867374825e-05
3.8939839586938419e-05
3.89398395900444007e-05
3.89398396271319145e-05
3.89398399830126243e-05
3.89398427623776261e-05
3.89398605475841611e-05
3.89399547531522715e-05
3.89403730636250799e-05
3.89419449364888907e-05
3.89469607205068745e-05
3.89605249874361526e-05
3.89915009264183262e-05
3.90510814352141859e-05
3.91466563886205005e-05
3.92541211486102686e-05
3.93708910528206847e-05
3.94902859986708617e-05
3.95996540317279777e-05
3.96917142900359495e-05
3.97675681378671696e-05
3.98379615112996009e-05
3.99409152389359226e-05
4.01120454441037869e-05
4.03330872602087717e-05
4.05586481634655677e-05
4.07374564595058673e-05
4.08701659753011367e-05
4.10092464991742827e-05
4.11557655453290619e-05
4.12903419757687675e-05
4.13967757133140664e-05
4.1471155410224264e-05
4.15191265713705111e-05
4.15494418362820098e-05
4.15677257445519016e-05
4.15801884721536129e-05
4.15910451583367957e-05
4.1600519822375467e-05
4.16085944064613063e-05
4.16155651209345457e-05
4.16226910425668539e-05
4.16312419710065132e-05
4.16399954586448755e-05
4.16476547776668834e-05
4.16513533947880337e-05
4.16544560450106654e-05
4.16574623403753058e-05
4.16599806410436311e-05
4.16620437760664258e-05
4.16637380599849043e-05
4.16650134731624e-05
4.16657186834415837e-05
4.16661982752144068e-05
4.166654844655416e-05
4.16666757310479096e-05
4.16667446984260911e-05
4.16667983346044485e-05
4.16668394379968802e-05
4.16668676172979224e-05
4.16668870929802671e-05
4.16669007349094875e-05
4.16669104601261048e-05
4.1666917503228175e-05
4.1666922035874982e-05
4.16669247114867826e-05
4.16669262720297982e-05
4.16669273225488449e-05
4.16669281491204035e-05
4.16669288716621064e-05
4.16669294641363165e-05
4.16669298453542145e-05
4.16669300269438076e-05
4.16669301664775372e-05
4.16669302935275462e-05
4.16669303968647932e-05
4.16669304544998762e-05
4.166693048558112e-05
4.16669305005011717e-05
4.16669305079018815e-05
4.16669305120408911e-05
4.16669305145813868e-05
4.16669305168120379e-05
4.16669305189589005e-05
4.16669305204025293e-05
4.16669305211592007e-05
4.16669305217125843e-05
4.16669305221722183e-05
4.1666930522535548e-05
4.16669305228768006e-05
3.90230401995261239e-05
3.90599041117665051e-05
3.91009845760190977e-05
3.91415507966577918e-05
3.9177978196700786e-05
3.92105528407076599e-05
3.92431942730312391e-05
3.92769231588398869e-05
3.93233094510272784e-05
3.94035925870505919e-05
3.95421090808678483e-05
3.96993413875004769e-05
3.98647983392351837e-05
4.00481226076208335e-05
4.02474826700081718e-05
4.04521162693641774e-05
4.06461881639299093e-05
4.08161031421108022e-05
4.09551035860300362e-05
4.10632547500586231e-05
4.11471107430181197e-05
4.12137441815906453e-05
4.12747914280923238e-05
4.13366734254264512e-05
4.13936929548991859e-05
4.14337593375366096e-05
4.14569994259514192e-05
4.14775597264453375e-05
4.14995596662175688e-05
4.15295975654156695e-05
4.15683032772680306e-05
4.15934034687228139e-05
4.16047125648014586e-05
4.16147870322457696e-05
4.16299640073036138e-05
4.16401359109857478e-05
4.16456970113478683e-05
4.1650715393139709e-05
4.16550386611850459e-05
4.16615239028917653e-05
4.16635118893905732e-05
4.16646442251928853e-05
4.16653236072580914e-05
4.16657895108861264e-05
4.16661422245809187e-05
4.16663452082049888e-05
4.16664956928763166e-05
4.16666249170965963e-05
4.1666734600515465e-05
4.16668073772977191e-05
4.16668489826786705e-05
4.16668731932704267e-05
4.16668888666200688e-05
4.16668998235700158e-05
4.16669075860812306e-05
4.1666913135465486e-05
4.16669196031195689e-05
4.16669245036618618e-05
4.16669259265487014e-05
4.16669268487250652e-05
4.16669278345575746e-05
4.16669288320348558e-05
4.16669296347538378e-05
4.16669300577317679e-05
4.16669302671007145e-05
4.1666930368523247e-05
4.16669304200587169e-05
4.16669304485840287e-05
4.16669304627764791e-05
4.16669304749181475e-05
4.16669304913410863e-05
4.16669305013640543e-05
4.16669305059652186e-05
4.16669305101831784e-05
4.16669305137100338e-05
3.89640394077014418e-05
3.89754613997087625e-05
3.8988725758985292e-05
3.90025876729353498e-05
3.90160768865448405e-05
3.90293815463971263e-05
3.90436905237591836e-05
3.90599725801899273e-05
3.90831376302009625e-05
3.91245375886792543e-05
3.91888703180612357e-05
3.92709159619774033e-05
3.93766350122359203e-05
3.95105018105637709e-05
3.96747117430730275e-05
3.98646590858393074e-05
4.00664590621844913e-05
4.02596528903428384e-05
4.04268467343493521e-05
4.05584046117167714e-05
4.06588404761209268e-05
4.07432965133561447e-05
4.08350142039974799e-05
4.09461511784688767e-05
4.10776936747938345e-05
4.11929897832311121e-05
4.12614728414285382e-05
4.13126005573677657e-05
4.13577936478387297e-05
4.13995064906913147e-05
4.14578260223229155e-05
4.15114989534310107e-05
4.15382456632714986e-05
4.15659898265908893e-05
4.15923280097917701e-05
4.16127941101459547e-05
4.16269748617586509e-05
4.16345246897624103e-05
4.16427966788766423e-05
4.16503041514269947e-05
4.16559080033173645e-05
4.16597339985239569e-05
4.16620726065056079e-05
4.16637100967632207e-05
4.16646858110378011e-05
4.16651649768491595e-05
4.16655399942868023e-05
4.16658708241194811e-05
4.16661880313907749e-05
4.16664609013212155e-05
4.16666522780739174e-05
4.16667507348916893e-05
4.16668012721801276e-05
4.16668324965067187e-05
4.16668566058022927e-05
4.16668755712349174e-05
4.16668905924331512e-05
4.16669064343562953e-05
4.16669169105572567e-05
4.1666919975049344e-05
4.16669219279755613e-05
4.16669238198542641e-05
4.16669264209382174e-05
4.16669281348066038e-05
4.1666929146410138e-05
4.16669297342758588e-05
4.16669300594221814e-05
4.1666930234798781e-05
4.16669303170656024e-05
4.16669303736446589e-05
4.16669304218585197e-05
4.16669304575798642e-05
4.16669304712960381e-05
4.16669304813401209e-05
4.16669304906266649e-05
3.89480049945234585e-05
3.89520665137444252e-05
3.89571795539951258e-05
3.89633592471843004e-05
3.89708370224616443e-05
3.8980173193967722e-05
3.899201374968624e-05
3.90066822666962766e-05
3.90275519682193044e-05
3.9059944744959523e-05
3.91031846131505536e-05
3.91595594763557151e-05
3.92313684698588906e-05
3.93214402187368553e-05
3.94322884990037982e-05
3.95672864037444663e-05
3.97217053716395849e-05
3.98845863705984589e-05
4.00399863796026717e-05
4.01754340614626432e-05
4.0282089937493425e-05
4.0392625802452233e-05
4.05246796233632835e-05
4.06814558193757463e-05
4.08655131362311135e-05
4.10198841683094307e-05
4.11360654930962305e-05
4.12187088107483605e-05
4.12764763278143117e-05
4.1333414987542118e-05
4.1393756883632939e-05
4.1485163987889789e-05
4.15291702437774714e-05
4.15557732169874783e-05
4.15762221456146167e-05
4.15921496689639129e-05
4.16072013596671095e-05
4.16232464389282083e-05
4.1636796265125612e-05
4.1645923053783858e-05
4.16523822308449031e-05
4.16572658507577333e-05
4.16611753335153928e-05
4.1662715974960331e-05
4.1663560626210688e-05
4.16642178881049242e-05
4.16647728093661219e-05
4.16652508459969232e-05
4.16656983882723926e-05
4.1666146544691689e-05
4.16664863657162124e-05
4.16666763788641354e-05
4.16667613239796251e-05
4.16668007327673545e-05
4.1666830750758682e-05
4.16668541649698579e-05
4.16668767269618462e-05
4.16668948945817273e-05
4.16669083892654235e-05
4.16669166438724976e-05
4.16669191365318968e-05
4.16669212202522797e-05
4.16669245424234651e-05
4.1666926892527802e-05
4.16669279965656023e-05
4.16669288426373027e-05
4.16669294742743116e-05
4.16669299232874391e-05
4.16669301738917385e-05
4.16669303172252851e-05
4.16669304019457915e-05
4.16669304502448163e-05
4.16669304649982465e-05
4.16669304762040858e-05
4.16669304860032134e-05
3.89441203390348441e-05
3.89465873880679095e-05
3.89501709359896245e-05
3.89553306733017311e-05
3.89627651180880107e-05
3.89734562889001719e-05
3.89885679891938862e-05
3.90090646823088377e-05
3.90352940399443516e-05
3.90691170280001122e-05
3.91124821593094276e-05
3.91668155131792006e-05
3.92330160624006113e-05
3.9311203194672707e-05
3.94013445601925499e-05
3.95074971445738866e-05
3.9627166174372167e-05
3.97533403098094295e-05
3.98795320129068551e-05
3.99887117534286057e-05
4.00928779781823525e-05
4.02250923208709207e-05
4.03808141343564369e-05
4.05821624937374855e-05
4.07688020461931117e-05
4.09305166539812105e-05
4.10718113957152722e-05
4.11687411317511874e-05
4.12209997081289031e-05
4.12816955148998034e-05
4.13777638274433801e-05
4.14616504574657571e-05
4.14965654228754215e-05
4.15280830961265436e-05
4.15610682430681558e-05
4.15801292680091032e-05
4.15968596249486293e-05
4.16163496561611104e-05
4.16330489702078455e-05
4.16438094297522562e-05
4.16521729181031357e-05
4.16584439730615278e-05
4.16610090187751809e-05
4.16621589576354542e-05
4.16630760869302581e-05
4.1663851813883234e-05
4.16645107774267151e-05
4.16650678087739513e-05
4.16655754421502714e-05
4.16660889052784678e-05
4.16664376796121818e-05
4.16666521165663168e-05
4.16667482105829583e-05
4.16667905719241997e-05
4.16668299412923575e-05
4.16668543012964633e-05
4.16668753326038827e-05
4.16668947686346907e-05
4.16669071416163447e-05
4.16669159195664455e-05
4.1666921162194629e-05
4.16669238515137536e-05
4.16669250211989248e-05
4.16669260918058933e-05
4.16669270022567123e-05
4.16669279070485922e-05
4.16669287943274155e-05
4.16669296027098225e-05
4.16669300399703002e-05
4.16669302738034692e-05
4.1666930396789143e-05
4.16669304471850555e-05
4.16669304632029025e-05
4.16669304758995605e-05
4.16669304874640268e-05
3.89437976547700782e-05
3.89462925051871819e-05
3.89501330510841186e-05
3.89559242562266634e-05
3.89644803779226362e-05
3.89768192854123065e-05
3.89940655544577765e-05
3.90171466812903127e-05
3.90460415614905012e-05
3.90813951823703961e-05
3.91248895205821112e-05
3.91775898505240908e-05
3.92399518248249594e-05
3.93114987430455439e-05
3.93918300931160055e-05
3.94848325740190217e-05
3.95890183657570725e-05
3.97023927325285323e-05
3.98308046405583283e-05
3.99627399629990721e-05
4.00941150548895516e-05
4.02580822005847854e-05
4.0457677925403967e-05
4.06592042711341245e-05
4.08554495503678052e-05
4.10080345332434771e-05
4.11070470881977188e-05
4.1164895681700704e-05
4.12457229834263165e-05
4.1354206877196747e-05
4.14059710761670156e-05
4.14715086782087636e-05
4.15066494748431202e-05
4.15381213917039748e-05
4.15632108452418616e-05
4.1587949837338597e-05
4.16046532766973422e-05
4.1619541040709856e-05
4.16335097483864179e-05
4.16452782881454492e-05
4.16544263569462332e-05
4.16592481081832044e-05
4.16608141968898991e-05
4.16619762444117732e-05
4.16629270517378204e-05
4.16637555404949044e-05
4.16644528304468726e-05
4.16650478742977556e-05
4.16656030807498239e-05
4.16661281030690703e-05
4.16664708029147919e-05
4.16666717587495689e-05
4.16667653528588654e-05
4.16668067375761399e-05
4.16668342928860821e-05
4.16668601814857025e-05
4.16668860149551942e-05
4.16669000240506323e-05
4.16669078432442078e-05
4.16669160364270614e-05
4.16669215622844142e-05
4.16669247561930528e-05
4.16669258211021661e-05
4.16669265592769665e-05
4.16669272249429955e-05
4.16669282242178093e-05
4.16669291810160689e-05
4.16669298100547398e-05
4.16669301403136313e-05
4.1666930317784049e-05
4.16669304150032448e-05
4.16669304645320057e-05
4.16669304853108352e-05
4.16669304927705053e-05
4.16669305008105894e-05
3.89443773922769462e-05
3.89472719541938701e-05
3.89517463281519082e-05
3.8958480262940279e-05
3.89683348153895351e-05
3.89823358303576436e-05
3.90015858117494934e-05
3.9027035626316578e-05
3.9058952614483855e-05
3.90966155534296526e-05
3.91414923933299094e-05
3.91946683729401822e-05
3.92566308537646314e-05
3.93273652306698227e-05
3.9406862279750337e-05
3.9499310749124555e-05
3.96067441427689569e-05
3.97271631115234277e-05
3.9864581220753055e-05
4.00184921481766789e-05
4.01841860735195416e-05
4.03414082560021777e-05
4.05150910039441681e-05
4.07518203284500761e-05
4.0937201204778788e-05
4.10395785892957011e-05
4.11047502882221064e-05
4.11871548965240982e-05
4.1288640961492102e-05
4.13490451469982208e-05
4.14130926753206559e-05
4.14695104492505278e-05
4.15101397737594144e-05
4.15435860283094622e-05
4.15715351335343874e-05
4.15933267703027921e-05
4.16117620619512e-05
4.16271632111377604e-05
4.16399978708291855e-05
4.1650579307188194e-05
4.16575968688428681e-05
4.16597072312919375e-05
4.16611130207707205e-05
4.16621535764911055e-05
4.16630447440797291e-05
4.16638180110842139e-05
4.16644602371089685e-05
4.16650314184320735e-05
4.16656231227043836e-05
4.16661599037130976e-05
4.16665016785630688e-05
4.16666962430347736e-05
4.16667712438959946e-05
4.16668068441512483e-05
4.16668422251500247e-05
4.16668712698295415e-05
4.16668872645871771e-05
4.16668981642099071e-05
4.16669100736886407e-05
4.16669202059601613e-05
4.16669235475518402e-05
4.1666925285262239e-05
4.16669264284340998e-05
4.16669271668267368e-05
4.16669279384548053e-05
4.16669289099802574e-05
4.16669296325135102e-05
4.16669300308024831e-05
4.16669302457799466e-05
4.16669303630666879e-05
4.16669304287923788e-05
4.16669304659672386e-05
4.1666930487353323e-05
4.16669305016755795e-05
4.16669305103518396e-05
3.8944185477765835e-05
3.89469687055064989e-05
3.89511648698249866e-05
3.89574523740688142e-05
3.89666232272696227e-05
3.89796516299683284e-05
3.89976472985787507e-05
3.90217145825900449e-05
3.90526188822505125e-05
3.90899723416509529e-05
3.9133861808587526e-05
3.91859893136187027e-05
3.92472813311060405e-05
3.93182064470814271e-05
3.93990861863229575e-05
3.94939748099086592e-05
3.96073920339790462e-05
3.97346334345088481e-05
3.98778806943120854e-05
4.00412489862395765e-05
4.02173964816362708e-05
4.04007324229297798e-05
4.06268610695400046e-05
4.07823121826112337e-05
4.08769069813760027e-05
4.09609262844998413e-05
4.10631935823628841e-05
4.11758689914474966e-05
4.12896662876252422e-05
4.13581303666600461e-05
4.14310456005330646e-05
4.14787432335762647e-05
4.15160753814752592e-05
4.15464470573694884e-05
4.15784295429182029e-05
4.16003503106245922e-05
4.1614746707633285e-05
4.16276858033830222e-05
4.1641280807765878e-05
4.16524922957837759e-05
4.1657333609445588e-05
4.16592362616121441e-05
4.16607051305222201e-05
4.16618781204214627e-05
4.16628615481486411e-05
4.16636731344435004e-05
4.16643259464891387e-05
4.16649281456713962e-05
4.16656426946347569e-05
4.16662499487905846e-05
4.16665312132266427e-05
4.16666246344923544e-05
4.16666931271195736e-05
4.16667639075571353e-05
4.16668399387303207e-05
4.16668660504268591e-05
4.16668816353233645e-05
4.16668943916993846e-05
4.16669120978845693e-05
4.16669209626802128e-05
4.166692347277979e-05
4.16669251404512705e-05
4.1666926439787228e-05
4.16669273154222553e-05
4.16669284399856968e-05
4.16669293968341888e-05
4.16669298948121159e-05
4.16669301548230686e-05
4.16669302997717511e-05
4.16669303869394306e-05
4.1666930438297254e-05
4.16669304678497931e-05
4.16669304857140093e-05
4.16669304981028555e-05
4.1666930508631143e-05
3.89439276136790689e-05
3.89467364790064858e-05
3.89508240764899606e-05
3.89569506397578354e-05
3.89659300913414592e-05
3.89787550602396183e-05
3.89965870328602397e-05
3.90206879364239816e-05
3.90522231596307398e-05
3.90917462387387667e-05
3.91383463366611834e-05
3.91934901582566638e-05
3.92590629616317152e-05
3.93362989980431256e-05
3.94260653619041875e-05
3.95335802723266108e-05
3.96679756512997999e-05
3.98213852177165277e-05
3.99822356423911566e-05
4.01421137102682009e-05
4.03138766777922896e-05
4.0503023652629153e-05
4.06910283142069028e-05
4.07771596599387388e-05
4.08482095881982431e-05
4.0908519352701248e-05
4.09904579272310049e-05
4.11099961955754624e-05
4.12215798414902426e-05
4.13129445754194482e-05
4.13907260900772252e-05
4.14559541419446412e-05
4.15062334152673784e-05
4.15424081515579713e-05
4.15719025224776161e-05
4.15973458037744923e-05
4.16174070735249516e-05
4.16326225319887448e-05
4.16451329478740217e-05
4.16528087218441854e-05
4.16558206336640094e-05
4.16581433899253334e-05
4.16598951270251506e-05
4.16612702805116081e-05
4.16624144006325379e-05
4.16633423079152597e-05
4.16641034858466548e-05
4.16648347676953768e-05
4.16657089778381227e-05
4.16662921194607929e-05
4.16664876742036021e-05
4.16665872872805444e-05
4.16666659253406651e-05
4.16667480661095561e-05
4.16668323572495555e-05
4.16668646781082321e-05
4.16668775583772542e-05
4.16668975479463633e-05
4.16669133774632937e-05
4.16669189221631722e-05
4.16669216401654684e-05
4.16669235920490288e-05
4.1666925289082222e-05
4.16669272746478036e-05
4.16669289557113358e-05
4.16669297138302724e-05
4.16669299241852805e-05
4.16669300659145805e-05
4.16669302531219875e-05
4.1666930389979215e-05
4.16669304283160007e-05
4.16669304530279091e-05
4.16669304721977487e-05
4.16669304881451226e-05
4.16669305030186417e-05
3.89439766673107699e-05
3.89469285340445575e-05
3.89512533974537296e-05
3.89574855154879005e-05
3.89665861825370865e-05
3.89795469595395573e-05
3.89975379810219062e-05
3.90218208067507718e-05
3.90535726135340225e-05
3.90935332579685983e-05
3.91412180403018681e-05
3.91951756153102848e-05
3.92574124142090053e-05
3.93287526547732571e-05
3.94093590681458914e-05
3.95028227208763658e-05
3.96142945948965022e-05
3.97443339237647287e-05
3.99267856100080608e-05
4.0169537986903542e-05
4.03851990338659542e-05
4.05524555793773379e-05
4.06270992392900737e-05
4.07032216021797552e-05
4.08025928639196123e-05
4.09176727287029863e-05
4.10462667895238289e-05
4.11615243532905182e-05
4.12538539055631133e-05
4.13275204645750151e-05
4.13854326516937049e-05
4.14325930435703054e-05
4.14747801912534631e-05
4.15157123960746042e-05
4.1560225199168038e-05
4.15949278869849344e-05
4.1617961637730842e-05
4.16333422452744986e-05
4.16452653562555017e-05
4.16506254687293228e-05
4.1654239868606143e-05
4.16569372896989615e-05
4.16591442565058178e-05
4.16609118601585186e-05
4.16622821638956101e-05
4.16633294375527285e-05
4.16642061029236135e-05
4.16650282665490695e-05
4.16658880381643544e-05
4.16663355638618372e-05
4.16664711198536363e-05
4.16665663557542907e-05
4.16666484993463018e-05
4.16667357031907755e-05
4.16668193605841932e-05
4.16668628609205354e-05
4.1666889467610355e-05
4.16669006356388389e-05
4.16669062380134889e-05
4.16669110697851904e-05
4.16669155758388763e-05
4.16669201160015218e-05
4.16669250233771209e-05
4.16669279751538562e-05
4.16669288235376584e-05
4.16669293391264305e-05
4.1666929683810659e-05
4.16669299407826878e-05
4.1666930229507129e-05
4.16669303970970158e-05
4.16669304440982777e-05
4.16669304660718912e-05
4.16669304814065351e-05
4.16669304940233551e-05
4.16669305063302762e-05
3.89436967221033669e-05
3.89464090127690979e-05
3.8950946955873082e-05
3.89580903521799161e-05
3.89679530057810355e-05
3.89808636743069545e-05
3.89991373691751344e-05
3.9023824006829982e-05
3.90559688534741035e-05
3.90962995631271995e-05
3.91447782347457198e-05
3.91995230041447144e-05
3.92586612824244514e-05
3.93227910006546051e-05
3.93904958901194411e-05
3.9465064680670551e-05
3.95634686839943861e-05
3.97172213222988932e-05
3.99652115902446415e-05
4.01373439652267833e-05
4.02472575089405179e-05
4.03480301190808343e-05
4.04734804775147054e-05
4.06244436184603961e-05
4.07859163651637326e-05
4.09397874142329468e-05
4.10742177444568308e-05
4.11773404158335721e-05
4.12531415636700809e-05
4.13169478668318877e-05
4.13748662041872695e-05
4.14279134361008548e-05
4.14756060059482003e-05
4.1519130862566199e-05
4.15630204544989362e-05
4.15965814742725671e-05
4.1618786072517808e-05
4.16334734455620239e-05
4.16446473083591727e-05
4.16501362672440462e-05
4.16539866496657592e-05
4.16568714700617793e-05
4.16591591924402651e-05
4.16609979667254636e-05
4.16624206699657079e-05
4.16634767717135912e-05
4.16643771343978614e-05
4.16652016462790896e-05
4.16659734328308918e-05
4.16662974732579986e-05
4.16664149091319647e-05
4.16665091529186217e-05
4.16666084428736705e-05
4.16667327421673813e-05
4.16668186264018114e-05
4.16668449915360965e-05
4.16668637274464958e-05
4.16668780904875597e-05
4.16668929841006291e-05
4.16669053539092503e-05
4.16669143031549527e-05
4.1666921763609875e-05
4.16669258463059499e-05
4.16669271827855355e-05
4.16669281084669014e-05
4.1666928819427204e-05
4.16669293796463318e-05
4.16669298719229546e-05
4.1666930195200194e-05
4.16669303599403706e-05
4.16669304248353797e-05
4.16669304471446825e-05
4.16669304647194574e-05
4.16669304812181143e-05
4.16669304994571392e-05
3.89436270348212922e-05
3.89459654863814637e-05
3.89501209928030075e-05
3.89570867669011793e-05
3.89681368077336837e-05
3.89814645247698105e-05
3.89999755069028601e-05
3.90254402330435549e-05
3.90592371598463199e-05
3.91023668557546902e-05
3.91551509997652906e-05
3.92166925287837885e-05
3.92836871758732412e-05
3.93528552873204917e-05
3.94240738409539615e-05
3.95048100655250617e-05
3.96214531204573802e-05
3.98041080572424688e-05
3.99603255714523696e-05
4.00489530182914871e-05
4.0136106083067342e-05
4.02633738864772024e-05
4.04217350315510035e-05
4.05902709323232371e-05
4.07525705945878671e-05
4.09033671987073854e-05
4.10415157698801764e-05
4.11607969249737644e-05
4.12606578986329326e-05
4.13376109182183172e-05
4.13984810416037865e-05
4.14476033903031133e-05
4.1487152331467357e-05
4.1524763857322898e-05
4.15678018640815535e-05
4.16012644508597398e-05
4.16229474743196932e-05
4.16365666882376756e-05
4.16460012308450436e-05
4.16512865763558039e-05
4.16543931014378465e-05
4.16568191297330868e-05
4.16588062193887955e-05
4.16604841645272544e-05
4.16618703383352215e-05
4.1662971442672901e-05
4.16638959084977768e-05
4.16647907247476076e-05
4.16657225041561685e-05
4.16661037446150483e-05
4.16662710413374425e-05
4.16664142307060417e-05
4.16665618911841789e-05
4.16666876469631855e-05
4.16667427982859371e-05
4.16667899531343361e-05
4.1666831733446856e-05
4.16668723096742926e-05
4.16668981752381474e-05
4.16669117981311289e-05
4.16669210163124348e-05
4.16669242471871226e-05
4.16669258641858464e-05
4.16669270277466577e-05
4.16669279668060145e-05
4.16669287581607824e-05
4.16669294325856064e-05
4.16669299129640049e-05
4.16669301673305536e-05
4.1666930304411147e-05
4.16669303904946853e-05
4.16669304219810955e-05
4.16669304413915196e-05
4.16669304617313014e-05
4.16669304890535553e-05
3.89440854073968041e-05
3.89464227958494878e-05
3.89505292166787175e-05
3.89578815232881353e-05
3.89694718400703034e-05
3.89865421681148897e-05
3.90053806447650399e-05
3.90310117255758117e-05
3.9064328483294043e-05
3.91059300929939344e-05
3.91557634888186286e-05
3.921281428812957e-05
3.92739242126835856e-05
3.93360886498635298e-05
3.93998467562553837e-05
3.94744518552409969e-05
3.95876452120911174e-05
3.9771931933190092e-05
3.99349414875381528e-05
4.00202149808525165e-05
4.01140950337754412e-05
4.02576241046317823e-05
4.04217339118224397e-05
4.05911014615620234e-05
4.07587696645361907e-05
4.09187163474087563e-05