/*--------------------------------*- C++ -*----------------------------------*\
  =========                 |
  \\      /  F ield         | OpenFOAM: The Open Source CFD Toolbox
   \\    /   O peration     | Website:  https://openfoam.org
    \\  /    A nd           | Version:  8
     \\/     M anipulation  |
\*---------------------------------------------------------------------------*/
FoamFile
{
    version     2.0;
    format      ascii;
    class       volScalarField;
    location    "0.1";
    object      gas::cTot;
}
// * * * * * * * * * * * * * * * * * * * * * * * * * * * * * * * * * * * * * //

dimensions      [0 -3 0 0 1 0 0];

internalField   nonuniform List<scalar> 
1800
(
0.0291546073069714959
0.029154597626153949
0.0291545925967282883
0.0291545918299328036
0.0291545910931299279
0.029154589307418162
0.0291545872860020233
0.029154585619592624
0.0291545842333631386
0.0291545828571795722
0.0291545813927565622
0.0291545798849979394
0.0291545783661759511
0.0291545767972779535
0.0291545751171995472
0.0291545988554870426
0.0291545956040889578
0.0291545924601436732
0.0291545912040175152
0.0291545903337911659
0.0291545888440318153
0.0291545870476159624
0.0291545854528274528
0.0291545840923131613
0.0291545827517930393
0.0291545813257355936
0.0291545798438960883
0.029154578333400908
0.0291545767543018378
0.0291545750493701315
0.0291545985204534688
0.0291545960840119446
0.0291545929987871329
0.0291545912210369115
0.0291545902244925124
0.0291545889191042115
0.0291545872386080804
0.029154585624493308
0.0291545842200331209
0.0291545828694641899
0.0291545814519812811
0.0291545799802609418
0.0291545784955288545
0.0291545769938288367
0.029154575455398124
0.0291545950133389464
0.0291545936940138702
0.0291545918083593036
0.0291545904611847859
0.0291545895298018047
0.0291545883727055942
0.0291545868834048975
0.0291545853781058698
0.029154584016573986
0.0291545827041518706
0.0291545813317312281
0.0291545798969710807
0.029154578437170113
0.0291545769551725606
0.0291545754375393748
0.0291545946458708384
0.0291545938287340774
0.0291545922270811213
0.0291545906992513454
0.0291545895329907538
0.0291545883623933362
0.0291545869707073267
0.0291545855064319903
0.02915458412252913
0.0291545827901884061
0.0291545814242756274
0.0291545800088499479
0.0291545785774810808
0.0291545771525031049
0.0291545757449015557
0.0291545929869624736
0.0291545923022553319
0.0291545910866419754
0.0291545899081812575
0.0291545889278524463
0.0291545878966827966
0.0291545866502214944
0.0291545852888902488
0.0291545839537262312
0.029154582654275292
0.0291545813291667205
0.0291545799551626642
0.0291545785566370112
0.0291545771569495168
0.0291545757643318706
0.0291545927366469761
0.0291545923406116708
0.029154591386415657
0.0291545902065463471
0.0291545890817810176
0.0291545879656222931
0.0291545867272241799
0.0291545853876193188
0.0291545840438454315
0.0291545827253023859
0.029154581395918415
0.0291545800309327349
0.0291545786475983504
0.0291545772740431988
0.0291545759295609268
0.0291545919506118675
0.0291545915073145659
0.0291545906088267436
0.0291545895731864547
0.0291545885913946819
0.0291545875930176064
0.0291545864604227864
0.0291545852046287551
0.02915458390952071
0.0291545826198221433
0.0291545813215751889
0.0291545799888768345
0.0291545786328804707
0.0291545772794820739
0.0291545759460420419
0.0291545918985686783
0.0291545916150504902
0.0291545908944695897
0.0291545898999472676
0.0291545888415178089
0.0291545877582213703
0.0291545865857320979
0.0291545853109097634
0.0291545839955699125
0.0291545826856381592
0.0291545813702262756
0.0291545800330168074
0.0291545786783123546
0.0291545773323008302
0.029154576017082455
0.0291545916194540372
0.0291545912663855565
0.0291545904810700668
0.0291545894945423115
0.0291545885064070746
0.0291545875066497318
0.0291545864037602402
0.0291545851820605266
0.0291545839027652458
0.0291545826213050197
0.029154581334810678
0.0291545800207176284
0.0291545786825313721
0.0291545773527243715
0.0291545760563007329
0.029154591604874297
0.0291545912528586755
0.0291545904697390057
0.0291545894865809091
0.0291545885008812136
0.0291545875047396624
0.0291545864017061541
0.0291545851770670904
0.0291545838998717652
0.0291545826167236878
0.0291545813248783453
0.0291545800073601778
0.0291545786712044293
0.0291545773354820389
0.0291545760229470312
0.0291545918932192352
0.0291545916093812092
0.0291545908872990651
0.0291545898909366559
0.0291545888318402967
0.0291545877498187757
0.0291545865779693873
0.0291545853061443219
0.0291545839939746469
0.0291545826852270332
0.0291545813744864789
0.0291545800390754367
0.0291545786869935424
0.0291545773420280978
0.0291545760279479579
0.0291545919476020043
0.0291545915049892385
0.0291545906072773232
0.0291545895720375405
0.0291545885904716043
0.0291545875922259445
0.0291545864587309765
0.0291545851987848118
0.0291545839039863593
0.0291545826180081291
0.0291545813175406246
0.0291545799859318742
0.0291545786330269507
0.0291545772827351973
0.0291545759523506136
0.0291545927337100164
0.0291545923379920545
0.0291545913842008869
0.0291545902044225216
0.0291545890794189695
0.0291545879627708171
0.029154586723326846
0.029154585381805799
0.0291545840378556811
0.0291545827206076795
0.0291545813913048936
0.0291545800280416205
0.0291545786480432896
0.0291545772784610503
0.0291545759378382154
0.0291545929835535442
0.0291545922989463017
0.0291545910834482662
0.0291545899049079904
0.0291545889241916351
0.0291545878923132884
0.0291545866447751843
0.0291545852821448216
0.0291545839464987105
0.0291545826475258681
0.0291545813233643793
0.0291545799520043676
0.0291545785582335813
0.0291545771651821328
0.0291545757806377093
0.0291545946421741184
0.029154593824994423
0.0291545922231616385
0.0291545906949140232
0.029154589527966384
0.0291545883564454517
0.0291545869636181017
0.0291545854981623796
0.0291545841135964663
0.0291545827814815237
0.0291545814169654922
0.0291545800049931129
0.029154578579850033
0.029154577164218879
0.029154575768405841
0.029154595009130306
0.0291545936897133692
0.0291545918037678584
0.0291545904560332261
0.029154589523812259
0.0291545883656239187
0.0291545868750177455
0.0291545853683870988
0.0291545840059365818
0.0291545826935508089
0.0291545813228565043
0.0291545798926009063
0.0291545784411655004
0.0291545769722057826
0.0291545754726280255
0.0291545985158982689
0.0291545960792360809
0.0291545929934962714
0.0291545912149196833
0.0291545902172792928
0.0291545889105177779
0.0291545872283836653
0.0291545856125296002
0.0291545842066236148
0.0291545828555201322
0.0291545814394035679
0.0291545799724289775
0.0291545784977683409
0.0291545770136688205
0.0291545755020079199
0.0291545988506182914
0.0291545955989748716
0.0291545924544189053
0.0291545911973595424
0.0291545903258968349
0.029154588834534121
0.0291545870361619268
0.029154585439240939
0.0291545840768211162
0.0291545827353288795
0.029154581310506647
0.0291545798337861824
0.029154578334230425
0.0291545767739871398
0.0291545750974155221
0.0291546073018591131
0.0291545976206971438
0.0291545925905598163
0.0291545918226114691
0.0291545910844069785
0.0291545892969111153
0.0291545872733280712
0.0291545856045038812
0.0291545842160298579
0.0291545828384936583
0.0291545813750580633
0.0291545798725507121
0.0291545783656331492
0.0291545768174837037
0.0291545751662014851
0.0291545736888458029
0.029154572491843167
0.0291545711156799524
0.0291545696799928762
0.0291545685595406175
0.0291545679308519295
0.029154567746546161
0.0291545679386541676
0.0291545681731431756
0.0291545682541550395
0.0291545682801752568
0.029154568066308003
0.0291545674021289267
0.0291545665304032559
0.0291545655208461686
0.0291545642916014591
0.0291545628782868514
0.0291545613862597731
0.0291545599690323891
0.0291545587609682161
0.0291545580807335489
0.0291545582000496684
0.0291545585583835309
0.0291545588920347695
0.0291545591821729018
0.0291545594428572856
0.0291545596433690109
0.0291545597591979823
0.029154559791165352
0.0291545597292262142
0.0291545596171039825
0.0291545594961951857
0.0291545594276311319
0.0291545592473936958
0.0291545583343310287
0.0291545573910617327
0.0291545567231255229
0.0291545559680414651
0.029154555180765717
0.0291545543668701931
0.0291545534743430403
0.0291545524584097375
0.0291545513009979357
0.0291545500138448051
0.0291545486574585518
0.029154547355831454
0.0291545462864121023
0.0291545456200640145
0.029154545298764125
0.0291545447657302371
0.0291545439828000616
0.029154543531394083
0.0291545435342231499
0.0291545436064767037
0.0291545436603709192
0.0291545437085064321
0.0291545437699041073
0.0291545438257056304
0.029154543748649113
0.0291545433818128051
0.0291545427539271831
0.0291545420329623432
0.029154541156845435
0.0291545400547728491
0.0291545395634325334
0.0291545395180613821
0.0291545394177476179
0.0291545392695530328
0.029154539154661846
0.0291545390932495194
0.0291545390836715178
0.0291545391045384267
0.0291545391176542823
0.0291545390945124362
0.0291545390151029399
0.0291545735354356225
0.0291545722702021316
0.0291545709196034779
0.0291545695886379595
0.0291545686304460379
0.0291545683005643257
0.0291545682873116004
0.0291545682678677406
0.0291545683150488816
0.0291545682964152592
0.0291545680151595599
0.0291545675431821583
0.0291545671841045885
0.0291545666078632283
0.0291545655584792493
0.0291545642621407995
0.0291545628347085542
0.0291545613646552182
0.0291545600512938125
0.0291545592634601808
0.0291545589747190248
0.0291545586905634091
0.0291545588844261648
0.0291545592220608142
0.029154559502592714
0.0291545597547006631
0.0291545599286848894
0.0291545600141143169
0.0291545600180173441
0.0291545598985534261
0.0291545596778701524
0.0291545593319169592
0.0291545587353454032
0.0291545578964971831
0.0291545571683110294
0.0291545569114327816
0.0291545565337096961
0.0291545557657817249
0.0291545550408353893
0.0291545542804827855
0.0291545534357902578
0.029154552466379588
0.0291545513492078752
0.0291545500834139298
0.0291545487447943397
0.0291545474863350342
0.0291545464732343405
0.0291545458905678422
0.0291545453757448662
0.0291545450375183222
0.0291545450511085831
0.0291545444604459567
0.0291545438103486924
0.0291545438155559819
0.0291545439447927907
0.029154543969752391
0.0291545439400586401
0.0291545438155486093
0.0291545434635513863
0.0291545431029097933
0.0291545430435051871
0.0291545427263059237
0.0291545423454842093
0.0291545422775235617
0.0291545411013270882
0.0291545399487511715
0.0291545396194305105
0.0291545394989481295
0.0291545393262965663
0.0291545391930785498
0.0291545391357853102
0.0291545391172821911
0.0291545390947885036
0.0291545390328345824
0.0291545388910947473
0.0291545740590992246
0.0291545728658971944
0.0291545716582953321
0.0291545704118609285
0.0291545693111301199
0.029154568544776039
0.029154568369104409
0.0291545684508262744
0.029154568312040538
0.0291545681242496441
0.0291545679303818056
0.0291545678909421839
0.0291545674882958405
0.0291545665123226667
0.0291545654407355734
0.0291545643050397305
0.0291545630228286674
0.0291545616429298472
0.0291545603549371903
0.0291545592841751244
0.0291545587290825033
0.029154558835332748
0.029154559034442952
0.0291545591987280479
0.0291545593614086461
0.0291545595412241627
0.0291545596342112356
0.029154559642068277
0.0291545596341724923
0.0291545594751548842
0.0291545592870135137
0.0291545590803319078
0.0291545589306281584
0.0291545590603260601
0.0291545595573570113
0.0291545585783323652
0.0291545572617291013
0.0291545559854509556
0.0291545551977293697
0.0291545543921078107
0.0291545534837730595
0.0291545524999753912
0.0291545514110552045
0.0291545502137784546
0.0291545489689574722
0.0291545477706543939
0.0291545467233421465
0.0291545459310321928
0.0291545456879056357
0.0291545453380406445
0.0291545443021834806
0.0291545438963249012
0.0291545437835750015
0.0291545437124414407
0.0291545436577580648
0.0291545436490773871
0.0291545436382813113
0.029154543593609774
0.029154543484796569
0.029154542883931666
0.0291545414624086313
0.0291545401860250561
0.0291545394788211946
0.0291545394749803503
0.0291545397501512919
0.0291545398379888729
0.0291545396551883274
0.0291545394522590116
0.0291545393180315908
0.0291545392227341021
0.0291545391453664898
0.0291545390737954456
0.0291545389832414681
0.0291545388337172418
0.0291545385710296687
0.0291545739733441722
0.0291545727545229165
0.0291545716812970576
0.0291545706658678273
0.0291545697955787643
0.0291545691761589884
0.0291545688337645735
0.0291545686091286109
0.0291545683943318264
0.0291545680725741677
0.0291545677675041533
0.0291545673146363336
0.0291545666496909953
0.0291545658908307914
0.0291545650086453487
0.0291545639737951882
0.0291545628535271259
0.0291545616993775965
0.0291545606925944674
0.0291545599138813387
0.0291545594645528684
0.0291545593721043196
0.0291545594249180487
0.0291545594861966524
0.0291545595507760498
0.0291545596670208657
0.0291545596892734682
0.0291545596406180586
0.0291545596072216653
0.0291545594238755944
0.0291545592185817326
0.0291545588919169957
0.0291545585781803167
0.0291545581875941456
0.0291545572824716444
0.0291545562667095796
0.029154555032612748
0.0291545549799241688
0.0291545545991024439
0.0291545538766982901
0.0291545530501370852
0.0291545521588547837
0.0291545511825564777
0.0291545501304898633
0.0291545490699386331
0.0291545480827613973
0.0291545472672384079
0.0291545466235341791
0.0291545460744021857
0.0291545454617592494
0.02915454480364435
0.029154544453539627
0.0291545444046630541
0.0291545441621581004
0.0291545439435221092
0.0291545438340103692
0.0291545437583765298
0.02915454364381765
0.0291545434636214969
0.0291545431704034012
0.0291545427508021621
0.0291545422497963141
0.029154541590706691
0.0291545404970326334
0.0291545400764044137
0.0291545400381921747
0.0291545398893889758
0.0291545396411036009
0.0291545394521293723
0.0291545393292647233
0.0291545392176144058
0.0291545390930080285
0.0291545389443237449
0.0291545387551801344
0.0291545385221449287
0.029154574413162021
0.0291545733035302249
0.0291545723432718104
0.0291545713960791285
0.029154570500695056
0.0291545697788299606
0.0291545692372007677
0.0291545688285235402
0.0291545684863176065
0.0291545681502910943
0.0291545677652435553
0.0291545673250391199
0.0291545667496820524
0.0291545660028992709
0.0291545651373339397
0.0291545641810085771
0.0291545631863504989
0.0291545621962051339
0.0291545613173723704
0.0291545605806050739
0.0291545601011967831
0.0291545598325370463
0.0291545597297968931
0.0291545596562757733
0.0291545596288858115
0.029154559632247546
0.0291545595949304279
0.0291545593581592211
0.0291545594617272641
0.02915455912870972
0.0291545588992551709
0.0291545585145774194
0.0291545581590245788
0.0291545577652466206
0.0291545571790278076
0.0291545566674840904
0.0291545563806585792
0.0291545556517265846
0.0291545547803414851
0.029154553997208274
0.0291545531516618148
0.0291545522499882213
0.0291545513045111289
0.0291545503164858041
0.029154549330785786
0.0291545483980376295
0.0291545475496519484
0.0291545468192528461
0.0291545462279704654
0.029154545687135304
0.0291545451482060416
0.0291545446952256732
0.0291545444493031894
0.0291545442024698578
0.0291545439697075727
0.0291545437982846552
0.0291545436464473486
0.0291545434668262701
0.0291545432342051464
0.0291545429273791686
0.0291545425240818251
0.0291545420106040717
0.0291545413956889703
0.0291545407712187309
0.0291545403934558751
0.0291545401937949242
0.0291545399879249538
0.0291545397482206037
0.0291545395403249828
0.0291545393791645541
0.0291545392298414169
0.0291545390649324623
0.0291545388797666352
0.0291545386710472323
0.0291545384543095316
0.0291545744185857277
0.0291545733039551454
0.0291545723730885255
0.0291545714895860147
0.0291545706587707509
0.0291545699678909011
0.0291545694480669602
0.0291545690433666904
0.0291545685891316693
0.0291545680844837313
0.0291545675405659108
0.0291545669555610537
0.0291545663038762434
0.0291545655871313786
0.0291545648143898099
0.0291545639806212765
0.0291545631250786329
0.0291545622883784723
0.0291545615002049563
0.0291545608641626958
0.0291545603962292399
0.0291545602076718341
0.0291545600331667848
0.0291545598647534529
0.0291545598052940537
0.0291545597845399192
0.0291545597624647927
0.0291545592520731645
0.0291545592902661271
0.0291545590883568254
0.0291545589381369992
0.0291545580558941891
0.0291545578340140984
0.0291545575106790383
0.0291545569699794838
0.0291545563353187639
0.0291545556795086147
0.0291545547881907618
0.0291545542694545932
0.0291545536051789067
0.0291545527921057111
0.0291545519965625485
0.0291545511565059756
0.0291545502669945562
0.0291545493819106959
0.029154548545701018
0.0291545477869398911
0.0291545471270886238
0.0291545465413076098
0.0291545459725585342
0.0291545454124746105
0.0291545449494386884
0.029154544685000186
0.0291545444389594809
0.029154544163673364
0.0291545439097047818
0.0291545436838304001
0.0291545434381801083
0.0291545431460681279
0.0291545427982561646
0.0291545423893856299
0.0291545419238303481
0.0291545414252159032
0.0291545409646120253
0.0291545406155976315
0.0291545403488121975
0.0291545401050078423
0.0291545398667133922
0.029154539647265814
0.0291545394505894791
0.0291545392592163985
0.0291545390572250027
0.0291545388378345073
0.029154538595590581
0.0291545383237661326
0.0291545746722856568
0.0291545736419128211
0.029154572777303666
0.0291545719343395959
0.0291545710996497821
0.0291545703439319258
0.0291545696985523566
0.0291545691347262007
0.0291545686070621701
0.0291545680898427882
0.0291545675698334505
0.0291545670167259116
0.0291545663974312128
0.0291545657010257031
0.0291545649404425372
0.0291545641443343023
0.0291545633561309213
0.0291545626191375903
0.0291545619597899236
0.0291545613601601576
0.0291545608412450974
0.0291545604303066717
0.0291545602004473631
0.0291545599622095135
0.0291545599599971582
0.0291545598077363743
0.0291545596429026825
0.0291545591450234447
0.0291545590041103475
0.0291545588329922938
0.0291545585041678434
0.0291545580894350016
0.0291545577241538838
0.0291545573392303255
0.0291545569066773355
0.0291545565595283489
0.0291545564751272204
0.029154556256752534
0.0291545552684736725
0.0291545538263393786
0.0291545529262569394
0.0291545521582275945
0.0291545513069987224
0.0291545504211495818
0.0291545495534361113
0.0291545487322166889
0.0291545479688348139
0.0291545472712536856
0.0291545466440241638
0.0291545460868736298
0.0291545456057852384
0.0291545451688819089
0.0291545447092040819
0.0291545444312022589
0.0291545441866939807
0.0291545439164738011
0.0291545436562414516
0.0291545433786075184
0.0291545430696202035
0.0291545427192191724
0.0291545423263477772
0.0291545419018819293
0.0291545414721741912
0.0291545410756221604
0.0291545407378136709
0.0291545404462945426
0.029154540179690807
0.029154539929969768
0.0291545396951013898
0.029154539483086047
0.0291545392798631363
0.0291545390608191415
0.0291545388129234029
0.0291545385257118116
0.0291545381699113426
0.0291545746812012611
0.0291545736350302155
0.0291545727535574561
0.0291545719073036079
0.0291545710845889788
0.0291545703510446043
0.0291545697401339662
0.0291545692009544145
0.0291545686481064874
0.0291545680721637078
0.0291545674738658035
0.0291545668556048854
0.0291545662040487985
0.0291545655118368267
0.0291545647845339491
0.0291545640436821456
0.0291545633048428399
0.0291545625868037568
0.0291545619368095456
0.0291545614376053398
0.0291545610870626894
0.0291545607169449161
0.0291545604743507873
0.029154560291152657
0.0291545600407308557
0.0291545598231900648
0.0291545595436231569
0.0291545592606476736
0.0291545589502106815
0.0291545586731622314
0.0291545582157692919
0.0291545582025897684
0.0291545576570186489
0.0291545571951610412
0.0291545567065541397
0.029154556162276711
0.0291545554486669668
0.0291545545688515796
0.0291545535783763639
0.029154552981738361
0.0291545525533884395
0.0291545518877979019
0.0291545511871276995
0.0291545503982428254
0.0291545495814855178
0.0291545488116545168
0.0291545480942366174
0.0291545474308944341
0.0291545468242020052
0.0291545462597360694
0.0291545457284562749
0.0291545452707825392
0.0291545449373561243
0.029154544600379341
0.029154544277764198
0.0291545439696544104
0.0291545436799348009
0.02915454336054309
0.0291545430196592237
0.029154542662337541
0.0291545422862912705
0.029154541897530202
0.0291545415129465073
0.0291545411513021123
0.0291545408237458351
0.0291545405251716142
0.0291545402467075915
0.0291545399860149122
0.0291545397392787183
0.0291545395024315826
0.0291545392840035882
0.0291545390619857153
0.029154538823187269
0.0291545385337971009
0.0291545381433605984
0.0291545747934096912
0.0291545737942642859
0.0291545729571258995
0.029154572143270132
0.029154571327270333
0.0291545705467015324
0.0291545698252540543
0.0291545691642832762
0.0291545685924257322
0.0291545680451150944
0.02915456746666081
0.0291545668625017122
0.0291545662300452778
0.0291545655540035517
0.0291545648439211179
0.0291545641344746476
0.0291545634424937687
0.0291545627782380627
0.029154562164212975
0.029154561602936984
0.0291545610558865305
0.0291545606164808485
0.0291545605159525302
0.0291545602701931382
0.0291545600377356821
0.0291545598394245646
0.0291545595790487014
0.0291545591671749926
0.0291545588762491224
0.0291545585279740262
0.0291545581626689969
0.0291545579101846648
0.0291545575112337058
0.0291545570928548395
0.0291545565658022296
0.0291545560277543976
0.0291545554400314787
0.0291545548742558058
0.0291545545911883232
0.0291545545834518936
0.0291545537572451934
0.0291545526707491925
0.029154551644844786
0.0291545505689057467
0.0291545496691691768
0.0291545488912208842
0.0291545481605353686
0.0291545474810520691
0.0291545468641917077
0.0291545463107198664
0.029154545815657306
0.0291545453864479505
0.0291545450178918829
0.0291545446953654711
0.0291545443949362479
0.0291545440801060443
0.0291545436939590827
0.0291545433571132953
0.0291545430079260988
0.0291545426307693034
0.0291545422483074322
0.0291545418731238223
0.0291545415140576775
0.0291545411696839986
0.0291545408450197899
0.0291545405432917099
0.0291545402612677501
0.0291545399992744168
0.0291545397719926852
0.0291545395623402405
0.0291545393308090296
0.0291545391039533322
0.0291545388863667793
0.0291545386570342922
0.0291545383836908541
0.0291545748500637268
0.0291545738584886999
0.0291545730173024716
0.0291545721914584395
0.0291545713580923446
0.0291545705918643643
0.0291545699201144655
0.0291545693106668134
0.0291545687044082978
0.0291545680728830942
0.0291545674360675008
0.0291545668113081177
0.0291545661641660313
0.0291545654729356701
0.0291545647567836644
0.0291545640452469494
0.0291545633500062129
0.0291545626762623779
0.0291545620687535395
0.0291545616665220553
0.0291545614988621728
0.029154561114584289
0.0291545606116117191
0.029154560279491544
0.0291545600351240386
0.0291545597504317723
0.0291545594233936188
0.0291545591295148919
0.0291545587800006792
0.0291545583954662332
0.0291545580533948481
0.0291545577241168544
0.029154557336569159
0.0291545568971845123
0.0291545564642013318
0.0291545559601992174
0.0291545554137580473
0.0291545548227720823
0.0291545541939978933
0.0291545533637295705
0.0291545525849312738
0.0291545518293910878
0.029154550923357718
0.0291545502539013041
0.0291545495984562274
0.029154548905128419
0.0291545482210222653
0.0291545475704548633
0.0291545469653577381
0.0291545464040394268
0.0291545458874030057
0.0291545454217779498
0.0291545450126635235
0.0291545446236505419
0.0291545442899873511
0.0291545440115002011
0.0291545437055179893
0.0291545433415958434
0.0291545429926530313
0.0291545426401708073
0.0291545422692502804
0.0291545418919107596
0.029154541533947264
0.0291545412031441187
0.0291545408863701991
0.0291545405870854285
0.0291545403030422784
0.0291545400344551432
0.0291545397828919008
0.0291545395340232771
0.0291545392991499862
0.0291545390906840299
0.0291545388999773745
0.0291545387344657909
0.0291545386290761425
0.029154574788992204
0.029154573767049087
0.0291545728967724932
0.0291545720503901644
0.0291545712250001164
0.0291545704693378059
0.0291545698292758025
0.0291545692466632263
0.0291545686538292013
0.0291545680592219907
0.0291545674885821532
0.029154566882351074
0.0291545662143919554
0.0291545655244943233
0.0291545648257984964
0.0291545641306137533
0.0291545634511267762
0.0291545627485210457
0.0291545621293353568
0.0291545618206774174
0.0291545612173184573
0.0291545608413925281
0.0291545605197375129
0.0291545602240077112
0.0291545599730431287
0.0291545597093658404
0.0291545594172438437
0.0291545591329308088
0.0291545588574758062
0.0291545586026855791
0.0291545582522985854
0.0291545578303860284
0.0291545573600586715
0.0291545568970353712
0.0291545564281279999
0.0291545559299154072
0.0291545553733990673
0.0291545547872015393
0.0291545541552849612
0.0291545534757511847
0.0291545527199333354
0.0291545519883022082
0.0291545513821680723
0.0291545508132049283
0.0291545501761794612
0.0291545494652134217
0.0291545488092279891
0.0291545482305677756
0.0291545476956341365
0.029154547191416573
0.0291545467059107707
0.0291545462316717754
0.0291545457670511071
0.0291545452948106416
0.0291545447369460434
0.0291545441682662734
0.0291545437547370244
0.0291545433845431072
0.029154542999519889
0.0291545426191028127
0.0291545422427081057
0.0291545418808745009
0.0291545415322585419
0.0291545411867744179
0.0291545408635343201
0.0291545405644425375
0.0291545402838019781
0.0291545400191166766
0.0291545397660477566
0.0291545395396884885
0.0291545393371816786
0.0291545391401305219
0.0291545389549667487
0.0291545388041362097
0.0291545387347377886
0.0291545748120817863
0.0291545738234231661
0.0291545729958259982
0.0291545721912228294
0.0291545713806897859
0.0291545706107035653
0.0291545699237573883
0.0291545692910220103
0.0291545686798764039
0.0291545680780020341
0.0291545674949130161
0.0291545668917927193
0.0291545662914645121
0.0291545656431513693
0.0291545649215537092
0.0291545641872022095
0.0291545634326102268
0.0291545628125513719
0.0291545624650790085
0.029154561792080938
0.0291545613828033956
0.0291545608658668326
0.0291545605860275142
0.0291545602998590642
0.0291545600077673002
0.0291545597118160991
0.0291545594123694442
0.0291545591196873677
0.0291545587926303196
0.0291545584560130924
0.0291545580911334659
0.0291545577044003863
0.0291545573308530821
0.029154556932482513
0.0291545564739919133
0.0291545559637948482
0.029154555409709064
0.0291545548239097382
0.0291545541876049481
0.0291545536983945676
0.0291545532366232693
0.0291545524478445464
0.0291545514592101429
0.0291545505387531059
0.0291545496778814091
0.0291545488835067111
0.029154548137016241
0.0291545474523436723
0.0291545468316864523
0.0291545462757247277
0.0291545457831231015
0.0291545453520221029
0.0291545449731208071
0.0291545446372512389
0.0291545443360140578
0.0291545440455719951
0.0291545437168129751
0.0291545433848666262
0.0291545430328239152
0.0291545426575960526
0.0291545422681577966
0.0291545418687802621
0.0291545414667138784
0.0291545411036053873
0.0291545407864054577
0.0291545404951449004
0.0291545402245004907
0.0291545399740676947
0.0291545397414068666
0.0291545395200469987
0.0291545393107498774
0.0291545391104588748
0.0291545389173734452
0.0291545387313410925
0.029154538565436889
0.0291545746948022114
0.0291545736526436054
0.0291545727631457967
0.0291545718982423492
0.0291545710618094818
0.0291545703072964776
0.0291545697250645032
0.0291545691968385264
0.0291545686368551681
0.0291545680502421425
0.0291545674251625295
0.0291545668121197844
0.0291545661893173359
0.0291545655443763013
0.0291545648705614155
0.0291545641646875735
0.0291545634024955487
0.0291545627365210162
0.0291545621913974762
0.0291545615288570648
0.0291545610253635158
0.0291545607231996629
0.0291545604925506699
0.0291545602038269479
0.0291545599215532678
0.0291545596653842581
0.0291545593842241872
0.0291545590780989926
0.0291545587634714949
0.029154558447305183
0.0291545580907041947
0.0291545576983020908
0.029154557296535967
0.0291545568642237185
0.0291545564259117831
0.0291545559663366691
0.0291545554591440201
0.029154554887068404
0.0291545542679854143
0.0291545535109913427
0.0291545526016356825
0.0291545519435623054
0.0291545512742411653
0.0291545504699873732
0.0291545496443348789
0.0291545488609563329
0.0291545481317339768
0.0291545474708361022
0.0291545468819998585
0.0291545463450990812
0.0291545458413613283
0.0291545453738250755
0.0291545449685381083
0.0291545446389340976
0.0291545443492741488
0.0291545440490599446
0.0291545437222090614
0.02915454337490192
0.0291545430147156434
0.0291545426506002875
0.0291545422694394034
0.0291545418564076141
0.0291545414383935705
0.0291545410593808535
0.029154540729927781
0.0291545404355209557
0.0291545401663661982
0.029154539921549455
0.0291545396971962904
0.0291545394905004043
0.0291545392991834282
0.0291545391134905088
0.029154538922639129
0.0291545387210670158
0.0291545385038775341
0.0291545746923595195
0.0291545736748384833
0.0291545728154681445
0.0291545719731935923
0.029154571138957551
0.0291545703881319132
0.0291545697386131029
0.029154569146335671
0.0291545685879978367
0.0291545680632207226
0.0291545675659287858
0.029154567012549544
0.0291545663845076825
0.0291545657163877342
0.0291545650293181559
0.0291545643347107877
0.0291545636251291651
0.0291545628270963655
0.0291545620421157989
0.0291545614690033525
0.0291545610234146789
0.0291545606992755814
0.0291545603274110492
0.0291545600236798458
0.0291545597911141083
0.0291545595646758894
0.029154559320832496
0.0291545590508431145
0.0291545587703924518
0.0291545584698188059
0.0291545581372866756
0.029154557767528573
0.0291545573626443462
0.0291545569449161018
0.0291545565059335397
0.029154556068533375
0.029154555592729843
0.0291545550683852857
0.0291545545157793871
0.0291545541435644998
0.0291545532629847379
0.0291545522695121941
0.0291545514131453937
0.0291545505406717483
0.0291545496453400957
0.0291545487890694788
0.029154547998188611
0.0291545472891130107
0.0291545466763711257
0.0291545461588036611
0.0291545457014235794
0.0291545453094651102
0.0291545449799933167
0.0291545446601903617
0.029154544327882885
0.0291545440095064626
0.0291545437184163869
0.0291545434208191831
0.0291545430918165802
0.0291545427152490287
0.0291545422929374853
0.0291545418391356177
0.0291545413738586064