/*--------------------------------*- C++ -*----------------------------------*\
  =========                 |
  \\      /  F ield         | OpenFOAM: The Open Source CFD Toolbox
   \\    /   O peration     | Website:  https://openfoam.org
    \\  /    A nd           | Version:  8
     \\/     M anipulation  |
\*---------------------------------------------------------------------------*/
FoamFile
{
    version     2.0;
    format      ascii;
    class       volScalarField;
    location    "0.1";
    object      H(s);
}
// * * * * * * * * * * * * * * * * * * * * * * * * * * * * * * * * * * * * * //

dimensions      [0 0 0 0 0 0 0];

internalField   uniform 0;

boundaryField
{
    reactingWall
    {
        type            fixedValue;
        value           nonuniform List<scalar> 
75
(
1.3969661317369777e-08
1.27212609030637139e-08
1.13587991883614065e-08
9.97547633987314089e-09
8.95537065063072487e-09
8.0044719053148091e-09
6.97125229961624548e-09
5.91021580233437378e-09
4.88952218524709663e-09
3.94483956780385175e-09
3.09046519599336262e-09
2.34191846394381092e-09
1.71418583306750861e-09
1.22825980366903963e-09
8.70463370529475446e-10
6.25060926848383774e-10
4.65870745036493838e-10
3.61831521660906425e-10
2.88476925951173149e-10
2.33604342158872017e-10
1.89280291263872126e-10
1.51606661221461672e-10
1.19309163607723665e-10
9.18203704122963176e-11
6.88872453954951876e-11
5.01006075231513752e-11
3.53976287925974216e-11
2.43839191968667058e-11
1.65050707118287612e-11
1.11698822605985086e-11
7.68868766410345518e-12
5.45105993329962003e-12
3.97715290325030921e-12
2.94782101038575183e-12
2.18491274961958153e-12
1.60423799601322663e-12
1.16518546116357099e-12
8.48657268837072654e-13
6.23173436092577961e-13
4.44730159001515186e-13
2.99617989377779194e-13
1.8945975538323843e-13
1.12861849124107018e-13
7.51829800606511427e-14
6.15110187772946149e-14
5.48269459708262757e-14
4.91711471455812465e-14
4.82169969379105438e-14
4.66772051807498702e-14
4.58951805751146715e-14
4.52972332014903031e-14
4.45082249812610844e-14
4.6370990941949323e-14
4.68148314998705282e-14
4.67294451233417779e-14
4.72203874144037097e-14
5.04324396836556339e-14
5.01778852267941429e-14
5.04259336950608751e-14
5.2466054245629204e-14
5.32365340316614891e-14
5.53095065588545491e-14
5.6453806701896934e-14
5.81243466234867645e-14
5.87509333379065916e-14
5.75154806607227924e-14
5.99126939703958817e-14
5.95210876400385925e-14
5.72168149049247234e-14
5.91760154118228394e-14
5.90421173604649774e-14
5.76681051971589481e-14
5.67503913133712114e-14
5.38154154815908579e-14
5.40809270477266957e-14
)
;
    }
    inertWall
    {
        type            zeroGradient;
    }
    inlet
    {
        type            fixedValue;
        value           uniform 0;
    }
    outlet
    {
        type            zeroGradient;
    }
    defaultFaces
    {
        type            empty;
    }
}


// ************************************************************************* //
