/*--------------------------------*- C++ -*----------------------------------*\
  =========                 |
  \\      /  F ield         | OpenFOAM: The Open Source CFD Toolbox
   \\    /   O peration     | Website:  https://openfoam.org
    \\  /    A nd           | Version:  8
     \\/     M anipulation  |
\*---------------------------------------------------------------------------*/
FoamFile
{
    version     2.0;
    format      ascii;
    class       volScalarField;
    location    "0.1";
    object      N2;
}
// * * * * * * * * * * * * * * * * * * * * * * * * * * * * * * * * * * * * * //

dimensions      [0 0 0 0 0 0 0];

internalField   nonuniform List<scalar> 
1800
(
0.920000000000269935
0.920000000006339747
0.920000000100625437
0.920000001230366626
0.920000012088770025
0.920000096930278843
0.920000640139673087
0.92000352375203398
0.920016384281660771
0.920064967029059266
0.920220594786247736
0.920641805612727571
0.92159999383684621
0.923423430148312407
0.926314170386246194
0.920000000000177343
0.920000000003407203
0.920000000043486144
0.920000000447864008
0.920000003822964318
0.920000027197964254
0.920000162885824313
0.920000832631427068
0.920003677039062939
0.920014142132194679
0.920047566980523923
0.920140081529854714
0.920360937921352318
0.920812511259367472
0.921595401788513735
0.920000000000124052
0.920000000002135998
0.920000000023414977
0.920000000204672097
0.920000001508466836
0.920000009496061089
0.920000051597524626
0.920000245211658463
0.920001029937684289
0.920003844228482137
0.920012768628283184
0.920037679336790482
0.920098395625709498
0.920226240486085145
0.920455554099096962
0.920000000000102403
0.920000000001691354
0.920000000017240027
0.920000000135285378
0.920000000880058622
0.920000004905053514
0.920000023898529862
0.920000103467478181
0.920000402756486424
0.920001417231239182
0.920004507540059024
0.920012908321918732
0.920033088839695479
0.920075469000563695
0.920152417148547119
0.920000000000096074
0.920000000001574558
0.920000000015699038
0.920000000118640693
0.920000000732611345
0.920000003838432501
0.920000017484624788
0.920000070515549884
0.920000255211896989
0.920000836303187075
0.920002492785018555
0.920006768096891747
0.920016733633920669
0.920037685079884704
0.920077407318017904
0.920000000000100848
0.920000000001660712
0.920000000016693908
0.920000000126703465
0.920000000780706206
0.920000004054345122
0.920000018183820267
0.920000071706904676
0.920000252072268543
0.92000079851609684
0.920002299432818971
0.920006062591443685
0.920014728411109095
0.920033178555333286
0.920069423779378837
0.920000000000105844
0.920000000001761964
0.920000000017923591
0.920000000137550566
0.920000000855732414
0.92000000447835073
0.920000020195352208
0.920000079886942324
0.920000281085597837
0.920000889794829524
0.920002559159337485
0.920006746281841203
0.920016430075474512
0.920037231750857054
0.920077599700892312
0.920000000000105067
0.920000000001749085
0.920000000017804465
0.920000000136592777
0.92000000084867517
0.920000004433384588
0.920000019948600811
0.920000078704204638
0.920000276121452409
0.920000871484315752
0.920002499125105344
0.920006568599258667
0.920015947124166789
0.920035951854593637
0.920073072968057071
0.920000000000101403
0.920000000001688023
0.920000000017119235
0.920000000130606788
0.92000000080680433
0.920000004194947874
0.920000018818728948
0.920000074150140512
0.920000260200146913
0.920000822338450486
0.92000236298023752
0.920006225459150451
0.920015150189440023
0.920033726964716969
0.920068373036824538
0.920000000000104068
0.920000000001732765
0.920000000017672237
0.920000000135797746
0.920000000844754195
0.920000004417134476
0.920000019892715515
0.920000078550902267
0.920000275813655732
0.920000871122800268
0.920002499010026176
0.920006567328039204
0.920015920691672595
0.92003447761782764
0.92006924925575162
0.920000000000102958
0.920000000001715335
0.920000000017462627
0.920000000133930129
0.920000000831915132
0.920000004347037659
0.920000019581507233
0.920000077407089889
0.920000272297714305
0.920000862106586936
0.920002480318132032
0.920006538288916764
0.920015765046010126
0.920033698054256277
0.920066926295969534
0.920000000000101403
0.920000000001685914
0.920000000017106911
0.920000000130643092
0.920000000808339657
0.920000004212743416
0.920000018953516907
0.920000074920384825
0.920000263748034453
0.920000836082938145
0.920002409084345607
0.920006356134911996
0.920015208107053284
0.920033015500763995
0.920066928582459642
0.920000000000104956
0.920000000001749751
0.92000000001785287
0.920000000137458085
0.920000000858273714
0.920000004511185687
0.920000020446888667
0.920000081341944109
0.920000287992183141
0.920000917791298001
0.920002657307114724
0.920007028641223967
0.92001678049718616
0.920036821112490744
0.920075773499217764
0.92000000000010651
0.92000000000177895
0.920000000018173392
0.920000000140228202
0.920000000877738366
0.920000004620802891
0.920000020963448017
0.920000083465888685
0.920000295909370935
0.920000945327871245
0.920002746162858931
0.920007298513001226
0.920017756863641956
0.920040057623780161
0.920084990506377598
0.92000000000010107
0.920000000001662155
0.92000000001667348
0.92000000012622063
0.920000000775812121
0.92000000402491211
0.920000018065003311
0.920000071396236407
0.920000251624091825
0.920000797931429415
0.920002292932400101
0.920006001405961227
0.920014412650971503
0.920032232266561278
0.920067992833668691
0.920000000000095075
0.920000000001551688
0.920000000015379849
0.920000000115302918
0.920000000704810139
0.920000003649300457
0.920000016405451482
0.920000065176061699
0.92000023167085665
0.920000742461336785
0.920002154715981901
0.920005682968685012
0.920013710354503744
0.920030606558423725
0.920063763970069504
0.920000000000099183
0.920000000001622298
0.920000000016266806
0.920000000124680195
0.920000000787002503
0.920000004242240377
0.92000001997529568
0.920000083546554825
0.920000313946442883
0.920001065785935879
0.920003270377603766
0.920009050698714193
0.920022551904812969
0.920050627918440944
0.920102404387231454
0.920000000000119167
0.920000000002017648
0.920000000021665487
0.920000000184569622
0.920000001325601779
0.920000008169729711
0.920000043675201162
0.920000204874316108
0.920000850961779859
0.920003145346901641
0.920010360385229209
0.920030370357435512
0.920078997748463911
0.920181670948757136
0.920367502988517883
0.920000000000179119
0.920000000003454721
0.920000000044243427
0.920000000457463996
0.920000003922840648
0.92000002801638403
0.920000168203000679
0.920000860612045557
0.920003798845747012
0.920014596130492301
0.920049088384045977
0.92014482088235694
0.920374744542986067
0.920849428182590857
0.921679949765982554
0.920000000000262275
0.920000000006138796
0.920000000097030535
0.920000001183239768
0.920000011617244762
0.920000093208442116
0.920000616055228648
0.920003389713685116
0.920015725333233392
0.92006215360134358
0.920210549252632681
0.920612526680437027
0.921531961349034923
0.923302842746785868
0.926146125171164236
0.929345338519451891
0.932822507902534181
0.936379221000012141
0.939638428891034438
0.942381931648724636
0.944639687134265382
0.94672097085648399
0.949728908293756668
0.954729083738939832
0.96120176112509248
0.967806579725966176
0.973064069445231827
0.976935700400564544
0.98096025740328241
0.985197113004514513
0.989091703437199099
0.992175789900600402
0.994334237331573001
0.995727656920538995
0.996608678291433403
0.99714038629065227
0.997499793090288467
0.997812569581815079
0.99808599834564149
0.998319534605436543
0.998520493132600051
0.998724726610201397
0.998969095553532083
0.999220602471379893
0.999441881332582938
0.999551114573151822
0.999639773590226044
0.99972531904092532
0.999799406661191603
0.99985828789467035
0.999906980945990287
0.999944005171653827
0.99996469774742025
0.999978604330598819
0.999988834059630238
0.999992613082215431
0.999994605846406648
0.999996160897357655
0.99999735328414241
0.999998172360245019
0.999998737852291653
0.999999133732294543
0.999999416227678739
0.99999962075350679
0.999999752933994013
0.999999831047743593
0.999999876582755465
0.99999990710204878
0.999999931056119062
0.99999995190671076
0.999999969114970577
0.999999980286122914
0.999999985587037732
0.999999989626087493
0.999999993280845323
0.999999996285012127
0.999999997973865185
0.999999998887446173
0.999999999327459643
0.999999999545369778
0.999999999666529304
0.999999999740636025
0.999999999805092243
0.99999999986695387
0.999999999908802062
0.999999999931130201
0.999999999947089435
0.999999999960379915
0.999999999970917819
0.999999999980770826
0.922473440022571811
0.92357377287150022
0.924802756209473165
0.926019198323490778
0.927112875803790981
0.92808845632228143
0.929062858755890009
0.930067712423561788
0.931432155889074243
0.933792276438245583
0.937856433336490269
0.942518885508147441
0.947399197578093877
0.952792642860154859
0.958645016600230937
0.964642511016115756
0.97032426271433081
0.975294453630519143
0.979357329866373805
0.98251355985439659
0.984958742933043307
0.986892810908138407
0.988654088130392794
0.990439941747543684
0.992090418240738292
0.99327397273778617
0.99395039947834618
0.994542716174257935
0.995171176652885681
0.996025899076397825
0.997128067701091192
0.997876919592135425
0.998203672385554186
0.998489608497118875
0.99892412641118189
0.99922365274450653
0.999388833276692257
0.999530277492195696
0.999652993321688221
0.999839776188344409
0.999899771531771564
0.999933241462659717
0.999953180936638764
0.999966817467204949
0.999977101240012378
0.999983021853382503
0.999987380064756293
0.999991098527838629
0.999994275495456941
0.99999640510547827
0.9999976258133908
0.999998332730532513
0.999998789320447834
0.999999108091109701
0.999999334034830434
0.999999495486277201
0.999999678961411287
0.999999824596949471
0.999999866740135746
0.999999893583664701
0.999999921796730584
0.999999950388316794
0.999999973864110658
0.999999986300784682
0.999999992473897814
0.999999995468890734
0.999999996987891548
0.9999999978271229
0.999999998243700672
0.999999998591051042
0.999999999061842226
0.999999999358479941
0.999999999491141156
0.999999999612485979
0.999999999714316412
0.920718681045718412
0.921059518411383449
0.921456351347483493
0.921872013097892684
0.922276800187749601
0.922675131643097113
0.92310174080365559
0.923586987150630367
0.924268350063090272
0.925483264446805842
0.92738814270178449
0.929815132870617123
0.93294084044903447
0.936894074110563246
0.94173855181732169
0.947338347579767537
0.953287555549144017
0.958982115351327491
0.963910097803750143
0.967790848890180189
0.970748110244499807
0.973210811333233949
0.975858443570147394
0.979058400394132056
0.982861347741319058
0.986244337205394617
0.988267805410711464
0.989761266690048269
0.991083621408454518
0.992269403975204245
0.993904928632482365
0.995508187900412289
0.996275060015613612
0.997065982113636728
0.997828633482407912
0.998424960418251239
0.99884134219737275
0.999061804317898039
0.999298843138571979
0.999515573394516355
0.999678366082788372
0.999790157825615755
0.999858300883820328
0.999906131128635467
0.99993506910215646
0.999948857983321115
0.999959677870048802
0.999969184984835113
0.999978329188804249
0.999986217352830442
0.999991845628908971
0.999994755409395641
0.999996244083073749
0.999997152841804238
0.99999785206887748
0.999998402224399952
0.999998837171797827
0.99999929025280021
0.999999603210488974
0.999999694025655805
0.999999751054482466
0.999999804877714782
0.9999998794039473
0.9999999298245702
0.999999959511765124
0.999999976803453205
0.999999986354263792
0.99999999155445396
0.999999993993519576
0.99999999563934594
0.999999997033793719
0.999999998078596408
0.999999998495040288
0.999999998779269261
0.999999999045811716
0.920242150532515568
0.920363074731340047
0.920515490758653021
0.92069972489473173
0.920922394921600551
0.921199940388941263
0.921551759098390266
0.921987513042096363
0.922603199561440546
0.923560302328406246
0.92484002990065084
0.926509928618309608
0.928636727109280025
0.931302975001813693
0.934581502768842221
0.938568712262503935
0.943133468775149253
0.947949159109259365
0.952548188518611783
0.956556909215776741
0.95970609171298471
0.962921442584344311
0.966751944393253626
0.971290081756305046
0.976638621826625752
0.981178442755231695
0.984589910358964038
0.98702566966586025
0.988703876999173836
0.990345232877349435
0.992072120641097621
0.994670419713317711
0.99601826302521157
0.996777309116446131
0.997371273878871145
0.997834406359818682
0.998264361102590647
0.998726479918369492
0.999121501976568793
0.999387792501801653
0.999575738057688845
0.999717330010349015
0.999831405531746764
0.999878228809158442
0.99990239627597266
0.999921386202046403
0.999937416960656744
0.999951197722504515
0.999964072753232958
0.999976952834244259
0.999986913281199929
0.99999254015550465
0.999995070263978825
0.999996231948316217
0.999997100499549374
0.999997784118342614
0.999998425696475457
0.999998961508074546
0.999999348189850257
0.99999959670270222
0.999999670567756627
0.999999729834968987
0.999999823828482848
0.999999894347048834
0.999999926068705247
0.9999999505655498
0.999999969044100379
0.999999982212192773
0.999999989706873538
0.999999993932309872
0.999999996425423254
0.999999997867000889
0.999999998303346738
0.999999998629466424
0.999999998912025734
0.920126579656793675
0.920199659761167021
0.920305825875685768
0.920458647360426152
0.92067875888454942
0.92099525209653621
0.921442783359312512
0.922050420144923222
0.922828369658087011
0.923830842257236662
0.925116122743454228
0.926726786369060807
0.928689623973419254
0.931008077325722327
0.933679679200519641
0.936818334472449554
0.940361158460739976
0.944094712047338414
0.947839072410498251
0.951085092903899643
0.95412640029950746
0.957974101194243421
0.962491265110973271
0.968358657979722759
0.973823178190905026
0.97857198688715652
0.982694719683941287
0.985573098040588125
0.987135013087366842
0.988821384197030251
0.991544550620478971
0.994051283217996295
0.995066694077526237
0.995960518696890507
0.996924259773277588
0.99749130247585116
0.997967181202187081
0.998523876366682939
0.999010586454758598
0.999324670031595752
0.999567288551081012
0.999750689839459694
0.999828554646112755
0.999861793614524652
0.999888301006168434
0.999910698278545618
0.999929758914304023
0.999945835562821572
0.999960388109363385
0.999975293549315247
0.999985487682105267
0.9999918087813221
0.999994686107655961
0.999995928078363239
0.999997073580650819
0.999997786829932123
0.99999838715635192
0.999998953824641434
0.999999315592809856
0.999999571940402454
0.999999726251016963
0.999999806963086546
0.999999840824762454
0.999999871639976168
0.999999897783691249
0.99999992367376489
0.999999949130763177
0.999999972677328097
0.999999985677762049
0.999999992596821263
0.999999996246881739
0.999999997777290095
0.999999998250476363
0.999999998618851693
0.999999998951622948
0.920116829890177401
0.920190535827554501
0.920304067862184549
0.920475343804557644
0.920728516796927798
0.921093841409611147
0.921604858197849319
0.922289524041903341
0.923147894297903338
0.924197349309105465
0.925488209770263359
0.927052200501287005
0.92890300513260371
0.931026734197968331
0.933409933754605126
0.936159416631016206
0.939244394633098501
0.942596446298066382
0.946379610681205796
0.950284003017409673
0.954119890834149609
0.958904330080259437
0.964730616270071173
0.970577849145275784
0.976317732191547716
0.980846858264399879
0.98380058336916687
0.985450201065865783
0.987771302019888275
0.990924853862819366
0.992437946128618909
0.994304951852925667
0.995335507363997229
0.996278368673895076
0.996987214210868555
0.997700888857114609
0.998193826964331454
0.998622811242091402
0.999025218066836418
0.999365528166281769
0.999632096779803359
0.999776500982045624
0.999822661165506776
0.999856488475323268
0.999883947212015789
0.999907870109887131
0.999928040521952166
0.999945229748782749
0.999961126564292035
0.999976406136254381
0.999986445627936704
0.999992379514748175
0.999995177194010765
0.999996400464632007
0.999997206269776173
0.999997945687146172
0.999998696763043649
0.99999911256069296
0.999999337621296114
0.999999575525774009
0.999999737198863925
0.999999831738183742
0.999999864547135187
0.999999885478333628
0.999999904305273635
0.999999932629949462
0.999999960296939605
0.999999978885413254
0.999999988664693307
0.999999993913162744
0.999999996787877654
0.999999998259816558
0.999999998889942399
0.999999999108601267
0.999999999338344825
0.920133859121589959
0.92021936851551156
0.920351612582425038
0.920550776032369344
0.920842447901576988
0.921257158085090344
0.92182780233722128
0.922582950186566775
0.923531288378142134
0.924650820898640702
0.92598371633931742
0.927562598310140984
0.929401921872187176
0.931501093307421701
0.933858312279651437
0.936586742482657719
0.939760667303663255
0.943314009512321139
0.947357617936387619
0.951877710107924768
0.956749568349270607
0.961366436105819733
0.966378433387593327
0.973290160834678675
0.978750356908644537
0.981859790574752922
0.983730031374901004
0.986061890150768616
0.988982228082118997
0.990828400265375775
0.992630172140888001
0.994260145352340086
0.995442685276009653
0.996413390979062341
0.997227011075106362
0.997860284847565837
0.998396224881403782
0.998841485398745621
0.999212430532010365
0.999519343676973149
0.999727584085312926
0.99979013075378742
0.999831408883954387
0.999861651269745022
0.999887398074384537
0.999909746118238241
0.999928309806091931
0.999944783938390258
0.99996165236109058
0.999977306030566448
0.999987333353588137
0.999993092254450322
0.999995371155932067
0.999996399563074956
0.999997428589448178
0.999998266670141467
0.999998742289696541
0.999999055676790816
0.999999394917260975
0.999999694628562197
0.999999797672368906
0.999999847554605803
0.999999881088189713
0.999999902757323977
0.999999924444991972
0.999999952458445418
0.999999973679095433
0.999999985447270867
0.999999991806141408
0.999999995272939257
0.999999997213102176
0.999999998309660243
0.999999998938539192
0.999999999357501945
0.999999999615976964
0.920128140929367011
0.92021054285977133
0.92033460923682231
0.920520636930511005
0.920792156814670415
0.921178131687905077
0.921711607925201348
0.922425577637123073
0.923343202255349826
0.924453813153348736
0.925757501820003159
0.927305217263001524
0.929124193695515022
0.931228134535166507
0.933625150833931494
0.936423323477847735
0.939771856849268006
0.943526518863025743
0.94774238764679597
0.952541880982700429
0.957716172888611994
0.963075967764894125
0.96960456938444084
0.974356168115205867
0.977090185309761217
0.9795198414397428
0.98245347481916756
0.985710352508153309
0.989019683543404637
0.991036067602221182
0.99314756919158198
0.994568332632579932
0.995624882790731691
0.996493737390082623
0.997419613447006803
0.998064548764282633
0.998486330531345945
0.998858113189053598
0.999248233427169397
0.999575154082770423
0.99972161726350417
0.999777002237162926
0.999819621336513809
0.999853579861639141
0.999882042312486785
0.999905560018803707
0.999924438236167501
0.99994173799133057
0.999962057358347645
0.999979861334066578
0.999988353065081048
0.999991106124840767
0.999993099637277782
0.999995110883993399
0.999997323627363266
0.999998115263999954
0.999998575192141193
0.999998939616326021
0.999999451974246667
0.99999971960814571
0.999999794432922973
0.999999843335755312
0.999999881293560655
0.999999906497486379
0.999999938513067566
0.999999966687198039
0.999999981442789454
0.999999989144814694
0.999999993423283273
0.999999995988497314
0.999999997502909355
0.999999998371998156
0.999999998895961251
0.999999999256432015
0.999999999561188901
0.92012049532506035
0.920203615842641209
0.920324532937246587
0.920505808834740313
0.920771632402894724
0.921151521102393067
0.921680024433104039
0.922394712521075077
0.923330405603085103
0.924504130609070551
0.925888741032165785
0.927525221118043253
0.929469490179617552
0.931757913895117196
0.934414466195783278
0.937577905788674837
0.941535616628271566
0.946057989887623352
0.950805846678699162
0.9555169427724306
0.960541901546073884
0.966055372936768464
0.97166369202441405
0.97419908711251324
0.976287280165320293
0.978029350060494962
0.980368979101878923
0.983793682910044098
0.987055845717739411
0.989714360281354288
0.991972315769064417
0.993866893204438884
0.995331354589940043
0.996384841237919372
0.997238590885807463
0.997975641602207086
0.998558319598627397
0.998998729323333112
0.999359225422321584
0.999589992305981556
0.999677663165600028
0.999745101497168109
0.999796030342898212
0.999835878192198546
0.999869015170881226
0.999895930788138654
0.999917891136262504
0.999938840761385617
0.999963866048172667
0.999981144076482531
0.999987170603188535
0.999990031803420054
0.999992301604832101
0.999994636689449101
0.999997081355836315
0.999998089640239618
0.999998457866113966
0.999999024610362386
0.999999497188197028
0.999999659696722776
0.999999741490187222
0.999999798377685378
0.999999847143309584
0.999999903903297627
0.999999953321405122
0.999999976235162236
0.999999982525341391
0.999999986630884741
0.999999991963378743
0.999999996074513842
0.999999997218243619
0.999999997944659658
0.999999998502186238
0.999999998964662073
0.99999999939465678
0.92012187260269962
0.920209109065349917
0.920337299595434866
0.920521718965508828
0.920791162296550669
0.921175083615797696
0.921708304698547365
0.922428408963551272
0.923370567814079002
0.924557146254949558
0.92597477322530708
0.927578180324999613
0.929425604820039442
0.931542045087540904
0.933931134680048403
0.936685932012428224
0.939974848009947461
0.943787058449184091
0.949092517388014589
0.956228733923442098
0.962599096921071817
0.967646445970473335
0.969843895558337277
0.97203714467211344
0.97490413104378193
0.978223864323672032
0.981940076539378204
0.985316422696029592
0.988010969867624045
0.990158646918678165
0.991845194325367441
0.993213598704498213
0.994431859504297133
0.995604737583910104
0.996887520901581947
0.997897763656880099
0.998570846483809227
0.999020206628664642
0.999366765996477668
0.999525494182540664
0.999631538006124143
0.999709932891642561
0.999773880149590566
0.999825195008144485
0.999864990892825989
0.999895429540544334
0.999920688762973686
0.999944203394003139
0.999969210803184794
0.999982631490165419
0.999986648525784894
0.999989430887260111
0.999991792934716628
0.999994260880611496
0.999996724564842898
0.999998011165310174
0.999998795897050652
0.999999135187080501
0.999999296449839647
0.999999435207152509
0.99999956446490712
0.999999694564845054
0.99999983673151982
0.999999924827622677
0.999999950080591393
0.999999965326502926
0.999999975415527209
0.999999982896283779
0.999999991189768123
0.999999996222364129
0.999999997689344333
0.999999998323673589
0.999999998770295107
0.999999999136735762
0.999999999491991254
0.920113612102945955
0.920193352335214709
0.920327121171439888
0.920537325863450384
0.920833370068925072
0.921214763673333992
0.921755989340266813
0.922488036560604852
0.923441987040112489
0.924639686404488348
0.926080491751540391
0.927709784552254502
0.929468563429632022
0.931376035753258114
0.933390062514118157
0.935591550902981517
0.938473693268229603
0.94296623422857373
0.950143588715514409
0.955475867803074697
0.958681911523873276
0.961632998064723465
0.965254927227778281
0.969639557533448326
0.974341372457791288
0.978834233144188826
0.982759500363766914
0.985793483645263424
0.988010462216142304
0.989863126771434065
0.991538506035381961
0.993071403540491282
0.994448676244232055
0.995701282929830955
0.996968274415854339
0.997946194761333061
0.998595652003235856
0.999024876891831726
0.999349690109282429
0.999511354655812978
0.99962398780680739
0.999707886180624339
0.999774191951202096
0.99982751670757386
0.999868881540453058
0.999899633189677339
0.999925555772118613
0.999949226782621436
0.999971803447829877
0.999981629239879877
0.999985066585550308
0.999987784558657555
0.999990613703653275
0.999994140869276738
0.999996729849987442
0.9999975113623224
0.999998059832957198
0.99999847436528122
0.999998901129236506
0.999999262440778414
0.999999523894026243
0.999999740812791638
0.999999863016570401
0.999999902418912789
0.999999929454337799
0.999999950123992787
0.999999966418779196
0.99999998065224438
0.999999990251539739
0.999999995150880228
0.999999997126091889
0.999999997781444216
0.99999999829046271
0.999999998764327103
0.999999999287919938
0.920111786248050567
0.920180695539477789
0.920302747873047333
0.920508464486491818
0.92083533804749429
0.921233093863334407
0.921780957590970229
0.922535597344987801
0.923537862208582916
0.924817788718961586
0.926385282520707953
0.928214297267607735
0.930207821438434168
0.932266237295329647
0.934384078462908052
0.936761365467520979
0.940170368410269131
0.945459958702456804
0.950273420161443338
0.952879054080566168
0.955419718687151587
0.959090880387269418
0.963707054603845426
0.968634248539753551
0.973378606563738868
0.97778031469599791
0.981808047091807135
0.985286946308991385
0.988199071279117658
0.99044751675537579
0.992219364980028051
0.99364701486917173
0.994793065028180323
0.99586773766157366
0.997107647877722769
0.99808172659798855
0.998715871898143814
0.99911421771745923
0.999386922022899804
0.999548046609145091
0.999636683960083094
0.999706951066542171
0.999764425319244032
0.999812964523255854
0.999853130567168291
0.999885088015355139
0.999911692118340412
0.999937384398756679
0.999964347323578862
0.999976040710802372
0.999980882746853483
0.999984994714597786
0.999989172687151151
0.99999295233204577
0.999994547655627564
0.99999590271928207
0.999997104503558942
0.999998273076795008
0.999999045115932961
0.999999447435593769
0.999999718609609123
0.999999817802588398
0.999999864320919918
0.999999898114024455
0.9999999253425782
0.999999948281557027
0.999999967833431147
0.99999998199214124
0.999999989526368704
0.999999993562308509
0.999999996105855771
0.999999997069135338
0.999999997621873749
0.999999998199075035
0.999999998978818194
0.920125340491329213
0.920194384174149005
0.920314845428332418
0.920530950499077627
0.920873391677721198
0.921382890156005385
0.921942749878972401
0.922702757041863886
0.923691539047076127
0.924927148522614817
0.926408330516057643
0.928105439173344426
0.92992586564867441
0.93177702470709789
0.93367441894304315
0.935869341014432643
0.939172164744697446
0.9445048077883893
0.949518530373152481
0.952033301566033718
0.954736837501054314
0.958910545551008742
0.963705166442673011
0.968654757761145402
0.973550421467445415
0.97821644377506245
0.982448694255234067
0.986125761391877798
0.989302218129235134
0.992012533140825159
0.993828779592728306
0.994919920656856749
0.99567553168641032
0.996553290395870484
0.997491332476303727
0.998221983961572468
0.998713361896750529
0.99904826989119766
0.999301187102959676
0.999491527713287531
0.999581974357178438
0.999659178915152324
0.999725293237967216
0.999783055353248518
0.999831955465418698
0.999871294197537397
0.999902030342635251
0.999929500135422589
0.999957980671658642
0.999977336910422898
0.999982971945754029
0.999986862166724166
0.999990391624859587
0.999992705363465073
0.999994385613764969
0.999995881977037482
0.9999972768158647
0.99999859861615481
0.999999352421530152
0.999999668572785105
0.999999760916608693
0.999999820301733289
0.999999862944127682
0.999999896880811145
0.999999927660457755
0.999999956679861413
0.999999974597325147
0.999999984840334255
0.999999990406386541
0.999999994055145724
0.999999996322696538
0.999999997294389931
0.999999998164691095
0.999999998693664072
0.999999999121022443
0.920142389890299617
0.920219338253816965
0.920350285057162876
0.920589350435291331
0.921032086353299917
0.921584003652500594
0.922307071034601522
0.923238417412915346
0.924409088993603523
0.925823475146370978
0.927451851176386399
0.929229213503162788
0.931044230906375003
0.932851570362442373
0.934735199215077528
0.937071496613846922
0.940480635871465021
0.945463259137297118
0.948443997980310538
0.950796789575876877
0.953434743212991598
0.957519045217227749
0.962685293391193797
0.968172841924469618
0.973429772833928508
0.978109205532450621
0.982073945364649759
0.985363103549194763
0.988152254549732767
0.990636390952400969
0.992582948523208608
0.994131752353246689
0.995437520040833079
0.9965928982752007
0.997581273944018188
0.998314171075848411
0.998790995211625177
0.99911155993331624
0.999358470223569051
0.999528864030523101
0.999612255721071929
0.999682913447614285
0.999744055238123597
0.999797430139384935
0.999842899294163479
0.999880107995846368
0.999909274807523341
0.999934995055194675
0.999962123430294558
0.999980271954384548
0.999985464548404424
0.999988889586118312
0.999991867445216731
0.999993913591778472
0.999995348229366865
0.999996525639396672
0.999997606957697571
0.999998782820082477
0.999999466161611728
0.999999642841543745
0.999999746209050078
0.999999816071803216
0.999999869808661068
0.999999909654279096
0.999999942749885795
0.999999962350686
0.999999972912467561
0.999999980174728242
0.999999986059086576
0.999999991356981366
0.999999995409591835
0.99999999739729506
0.999999998388698574
0.999999998859523287
0.999999999253322169
0.920113991651334118
0.920174461982904868
0.920269705377921188
0.920441839382155735
0.92076108672043544
0.921144066052715926
0.921771337891201026
0.922496506354849144
0.923429562026590101
0.924582307853877183
0.925935781435427874
0.927420814183164133
0.929040242874614175
0.930849245363578048
0.932826207592787227
0.935264901591143949
0.938649352449737795
0.943400315986457016
0.94997902892975794
0.952949693526445429
0.955302071339843573
0.958971556116694601
0.964020890806927433
0.969639069922901498
0.974874816228578966
0.97921054777573624
0.982603055925567292
0.985362733978710548
0.987913640421850037
0.990279569771796431
0.992286290118428616
0.993964558509846774
0.99538263351848677
0.996604257373942426
0.997629813020524892
0.998387180511319583
0.998875872754062533
0.999198534221060308
0.999447715482375765
0.999593584308864913
0.99966871654730316
0.99972954457960328
0.999781166885238326
0.999826032221745042
0.999864013588290024
0.999894286945029465
0.999918227980503005
0.99994090806355751
0.999966184962989613
0.999981938597928721
0.999986593226887432
0.999989709365135093
0.999992227294628999