/*--------------------------------*- C++ -*----------------------------------*\
  =========                 |
  \\      /  F ield         | OpenFOAM: The Open Source CFD Toolbox
   \\    /   O peration     | Website:  https://openfoam.org
    \\  /    A nd           | Version:  8
     \\/     M anipulation  |
\*---------------------------------------------------------------------------*/
FoamFile
{
    version     2.0;
    format      ascii;
    class       volScalarField;
    location    "0.1";
    object      p;
}
// * * * * * * * * * * * * * * * * * * * * * * * * * * * * * * * * * * * * * //

dimensions      [1 -1 -2 0 0 0 0];

internalField   nonuniform List<scalar> 
1800
(
101325.239418435885
101325.20577442355
101325.188297333108
101325.185636089402
101325.183080458388
101325.17688073928
101325.169863222705
101325.164080963892
101325.159274098522
101325.154504071426
101325.149429740675
101325.144207788122
101325.138951315763
101325.133525787955
101325.127718943433
101325.210045785585
101325.198746893395
101325.187822713284
101325.183460878805
101325.180441587581
101325.17527049646
101325.169035016326
101325.163501754287
101325.158784393963
101325.154138502534
101325.149197772131
101325.144066458393
101325.138840144355
101325.13338117172
101325.127489846534
101325.20888142052
101325.200414884806
101325.189694811284
101325.18352014535
101325.18006190384
101325.175531677538
101325.169699169957
101325.164098858673
101325.159228993449
101325.154548480743
101325.149637662238
101325.144540980808
101325.139402139743
101325.134207479961
101325.128887584695
101325.196692672776
101325.192108638948
101325.185557649093
101325.180879502179
101325.177647832184
101325.173633115963
101325.16846518706
101325.16324309053
101325.158522669779
101325.153975196474
101325.149221380751
101325.144253491861
101325.139201723025
101325.134076252521
101325.128829447931
101325.19541561442
101325.192576919857
101325.187012984592
101325.181707038631
101325.177659177163
101325.173597700574
101325.168769065742
101325.163689262728
101325.158891220635
101325.154275030698
101325.149543885185
101325.144642667874
101325.139688227238
101325.134757745938
101325.129888214884
101325.189650212298
101325.187271780378
101325.183049533836
101325.178957869037
101325.175556368558
101325.171979793668
101325.16765601834
101325.162933009095
101325.158304441589
101325.153803726556
101325.149214501274
101325.14445709133
101325.1396167067
101325.134774237886
101325.129957498328
101325.188780332086
101325.187405167395
101325.184091462419
101325.179994906197
101325.176091564004
101325.17222028476
101325.167925291418
101325.163274903898
101325.158616445915
101325.154052319558
101325.149447760545
101325.144721092031
101325.139932871971
101325.135179879406
101325.130528019101
101325.186048569754
101325.184509146158
101325.181389029793
101325.17779364383
101325.174387124192
101325.170926473176
101325.167002643473
101325.16263499968
101325.158145642432
101325.15368999551
101325.149190770288
101325.144575497994
101325.13988254423
101325.135199940123
101325.13058711894
101325.185867801978
101325.184883702954
101325.182381888022
101325.178929169968
101325.175255326743
101325.171501071804
101325.16743001662
101325.163014739766
101325.158455554469
101325.153911021043
101325.149360328171
101325.144728892978
101325.140041402236
101325.13538434064
101325.130834094321
101325.184897844942
101325.183672064406
101325.180945353568
101325.177520285215
101325.174086785584
101325.170631021334
101325.166807086382
101325.162560010998
101325.158123862566
101325.153692589825
101325.149241367646
101325.144684064508
101325.140057235461
101325.135456640754
101325.130971155289
101325.184847485711
101325.183625340665
101325.1809063236
101325.177494216929
101325.174079469725
101325.170613788956
101325.166789957817
101325.162556034353
101325.158131209741
101325.153678943374
101325.149203173642
101325.144651195995
101325.140023235144
101325.135401704218
101325.130861997735
101325.185849896632
101325.184864831885
101325.182358239777
101325.178900228086
101325.175226193736
101325.171469567096
101325.167410758295
101325.162997366526
101325.158451142255
101325.153923656893
101325.149380180257
101325.144760350609
101325.140081051693
101325.135428256588
101325.130883387712
101325.186038989719
101325.184502113218
101325.181385072472
101325.177791663387
101325.174386111146
101325.170922250545
101325.166988432306
101325.162634669789
101325.158148803355
101325.153682223376
101325.149183169007
101325.144576522129
101325.139896419452
101325.135227095147
101325.13062823689
101325.188771135872
101325.187397227768
101325.184085233384
101325.179989353535
101325.176085198313
101325.172211146069
101325.167912644858
101325.163266792195
101325.158609969352
101325.154043228846
101325.149441624206
101325.144724861588
101325.139951847115
101325.135216871684
101325.130583642283
101325.189639476521
101325.187261538755
101325.18303997122
101325.178948377608
101325.175545815044
101325.17196704958
101325.167641166758
101325.162918978342
101325.158290985215
101325.153790897413
101325.149207238675
101325.144462877579
101325.139643638497
101325.134829910341
101325.130048232793
101325.195403945647
101325.192565250574
101325.187000986072
101325.181694013387
101325.177644320618
101325.173580510789
101325.168749762626
101325.163669143323
101325.158871161082
101325.154257169677
101325.149533769829
101325.144648887202
101325.139721699452
101325.134830860334
101325.130011381654
101325.196679280998
101325.192095086299
101325.185543410786
101325.180863825837
101325.177629985352
101325.17361261211
101325.168441983071
101325.163217852605
101325.158496769523
101325.153951953936
101325.149207699767
101325.144260391928
101325.139244210397
101325.134172590129
101325.128999653782
101325.208866863686
101325.200399732785
101325.189678230905
101325.183501272331
101325.180040079737
101325.175506340238
101325.169669955911
101325.164065983641
101325.159193795102
101325.154514567083
101325.149612623005
101325.144537950022
101325.139441416293
101325.134317647549
101325.129103972809
101325.210030161266
101325.198730607837
101325.187804694127
101325.183440240929
101325.180417576252
101325.175242231227
101325.169001766655
101325.163463435238
101325.158742283238
101325.154096483966
101325.149164528877
101325.144056932157
101325.138876552024
101325.133493824454
101325.127715959708
101325.239401985062
101325.20575697509
101325.188277814232
101325.185613214111
101325.18305366674
101325.17684909192
101325.169825864024
101325.164037555602
101325.15922579568
101325.154454705902
101325.149388491423
101325.14419094265
101325.138984040634
101325.133641769178
101325.127950618786
101325.122785405823
101325.118651509576
101325.113890801033
101325.108909362854
101325.10500321853
101325.10278540435
101325.102106098711
101325.102768089564
101325.103605521479
101325.103910366859
101325.104009472285
101325.103302844189
101325.101037589207
101325.098011003211
101325.094512952317
101325.090253043294
101325.08534033726
101325.080131738927
101325.075149858356
101325.070848910109
101325.068294963028
101325.068641633843
101325.069797141186
101325.07085668006
101325.071749674753
101325.07252231396
101325.073090899532
101325.073374114596
101325.07338956451
101325.07311447864
101325.072916033503
101325.072593000717
101325.072543035712
101325.072016346079
101325.069004756224
101325.065695184865
101325.06322419543
101325.060591384274
101325.057858430475
101325.055035255733
101325.051950783571
101325.048441725201
101325.044442468468
101325.039990930367
101325.035291250053
101325.030767563716
101325.02703127281
101325.02467005614
101325.023542674637
101325.02173219886
101325.019029203322
101325.017472306339
101325.017464765755
101325.017638142381
101325.017797460256
101325.017941499143
101325.018131925433
101325.018310430649
101325.01805419728
101325.016802217287
101325.01463212246
101325.012126363756
101325.00907407199
101325.00520868352
101325.00344632192
101325.003280860474
101325.002931208932
101325.002409284236
101325.001997637257
101325.001769915849
101325.001722005254
101325.00178075704
101325.001813864452
101325.001722172208
101325.001435630911
101325.122260612101
101325.117888672321
101325.113211547374
101325.108586115864
101325.10523155026
101325.10405491227
101325.103995898127
101325.103920425943
101325.104104199389
101325.104080171892
101325.103127176
101325.101489101697
101325.100237864448
101325.098279396538
101325.094659426919
101325.090164161986
101325.085198404005
101325.080064890135
101325.075443389636
101325.072628817114
101325.071579539173
101325.070391239773
101325.070933486466
101325.07200440536
101325.072870571064
101325.07359587097
101325.074072658812
101325.074240756439
101325.07415328252
101325.07371105926
101325.073015085378
101325.071990519238
101325.070370078218
101325.067524471218
101325.064971600543
101325.064116846755
101325.062469842378
101325.059875135019
101325.057373994103
101325.054731037162
101325.051818567372
101325.048471329035
101325.044611903621
101325.040234670247
101325.035594526955
101325.031215264986
101325.027669737683
101325.025617337131
101325.023807654594
101325.022639921473
101325.022749449781
101325.020818679739
101325.018439002277
101325.018301134493
101325.018765170113
101325.018844647508
101325.018727335992
101325.018290510416
101325.017065513544
101325.015814693703
101325.015631800517
101325.014555687652
101325.013258493767
101325.01301345411
101325.008882988026
101325.004804086304
101325.003632866312
101325.003210037641
101325.002600175125
101325.002120865378
101325.001906355697
101325.001828189692
101325.001737352024
101325.001511094422
101325.001009590647
101325.124061333525
101325.119937650525
101325.115759867185
101325.111438804888
101325.107608110658
101325.104919272708
101325.104290260468
101325.104578781655
101325.104120926684
101325.10349350347
101325.102824803747
101325.102679815041
101325.101329590892
101325.097961262145
101325.094237365673
101325.090293862464
101325.085833404475
101325.081024071143
101325.076489167885
101325.07267456282
101325.070608298556
101325.070888653601
101325.07148168252
101325.071954381827
101325.072434005706
101325.072841763133
101325.073053264059
101325.07292003771
101325.072745216385
101325.072154315989
101325.07142891796
101325.070798035813
101325.071269928681
101325.071669211393
101325.07332884708
101325.069982648158
101325.065090058357
101325.060657471025
101325.057919371917
101325.055135403585
101325.051992150809
101325.04858777106
101325.044820530267
101325.040674982811
101325.036357537334
101325.032191604987
101325.028535212099
101325.025744658633
101325.024875666248
101325.023675444856
101325.020053854372
101325.018602048905
101325.018594317109
101325.018192572243
101325.0178103535
101325.017739956311
101325.01768207112
101325.017515463624
101325.017139137723
101325.015061805287
101325.010075273021
101325.005602727731
101325.003133591628
101325.003171344375
101325.00414206367
101325.004422074824
101325.003768468072
101325.003049224688
101325.002567731659
101325.002222276395
101325.001940054688
101325.001678356552
101325.001351533487
101325.000821488517
101324.999901444637
101325.123766322897
101325.119549371739
101325.11583081838
101325.112304622788
101325.109276604315
101325.107117010091
101325.105920480317
101325.105131642558
101325.104426927195
101325.103379016669
101325.10227226706
101325.100703377801
101325.098415413901
101325.095790645471
101325.092734646882
101325.089149747975
101325.085229287928
101325.081216057064
101325.077634237547
101325.074844162707
101325.073186078895
101325.072774800588
101325.072854188111
101325.072959747704
101325.073083507043
101325.073335020352
101325.073283402264
101325.072864349087
101325.07255947683
101325.071851825851
101325.07083792417
101325.06904304467
101325.071289266882
101325.069072886254
101325.06558366408
101325.06184715053
101325.057433779992
101325.057167726889
101325.055867727526
101325.053358894758
101325.050494687603
101325.047410631378
101325.044024713396
101325.040377022626
101325.036692236637
101325.03325281282
101325.030398640549
101325.028146651006
101325.026231444179
101325.024102148687
101325.021790977873
101325.02040456947
101325.020112781815
101325.019609220428
101325.018819514662
101325.018380140697
101325.018096490661
101325.017688552995
101325.017055443837
101325.0160318493
101325.014593901316
101325.012854821704
101325.010558380091
101325.006742107595
101325.005262488179
101325.005111803446
101325.004582131252
101325.003706025193
101325.003033448404
101325.002592437566
101325.002191931344
101325.001745968329
101325.001216324017
101325.00054577562
101324.999719917265
101325.12527964238
101325.121439853901
101325.118116525075
101325.11483423195
101325.111725983865
101325.109217021411
101325.107341286333
101325.1059424126
101325.104737715767
101325.10351312696
101325.102238628082
101325.100752424914
101325.098763447779
101325.096179300104
101325.093170835593
101325.089855524871
101325.086382118665
101325.082918966131
101325.079810845404
101325.077161853042
101325.0754344827
101325.074411072637
101325.073937169727
101325.073574288108
101325.073378466856
101325.073254727598
101325.07292460317
101325.071974801132
101325.071880825068
101325.07088280571
101325.069757120364
101325.069074182611
101325.068797002328
101325.067353296123
101325.065168840141
101325.063262489697
101325.062290577524
101325.059677935322
101325.056513857766
101325.05378623576
101325.050862291959
101325.047731351457
101325.04444504522
101325.041013839233
101325.037587871353
101325.034340695376
101325.03138200684
101325.028828478666
101325.026758332242
101325.024868490407
101325.022988179888
101325.021427329542
101325.020437227518
101325.019531637896
101325.018815525458
101325.018233207913
101325.017703507649
101325.017075864002
101325.016263887461
101325.015197291461
101325.013805156588
101325.01202944087
101325.009892021088
101325.007698491783
101325.006363342996
101325.005656338355
101325.004928389855
101325.004080215978
101325.003341768039
101325.002767457656
101325.002236072702
101325.001650558072
101325.00099346909
101325.000252758575
101324.999478874932
101325.125300626052
101325.121442708041
101325.118219806769
101325.11515722741
101325.112274001571
101325.109874929156
101325.10807094691
101325.10667648229
101325.10510307466
101325.103356213338
101325.101489758657
101325.099475911775
101325.09722095418
101325.094733791237
101325.092046732476
101325.08915707015
101325.086173831922
101325.083235416023
101325.080452033479
101325.078154147122
101325.076484634672
101325.075732001787
101325.075008834494
101325.074324322835
101325.074027474649
101325.073840850324
101325.073465952271
101325.071805022963
101325.071191334267
101325.070540041517
101325.069382387912
101325.068520387984
101325.067539835742
101325.066300036546
101325.06435653707
101325.062116725021
101325.059794952787
101325.056607325518
101325.054590938933
101325.052422787339
101325.049629667206
101325.046856630899
101325.043927657156
101325.040837526016
101325.037760242543
101325.034846974842
101325.032198684639
101325.02989069077
101325.027843716438
101325.025855894855
101325.023891984907
101325.02226379652
101325.021239777343
101325.020403516261
101325.019477229362
101325.018611201944
101325.017831275676
101325.016978831525
101325.015963409125
101325.014754873846
101325.013336334057
101325.011718901675
101325.009980178496
101325.008362979424
101325.007133392777
101325.006194387533
101325.005334527654
101325.004491657659
101325.003714520455
101325.003017985029
101325.002340563195
101325.001625656208
101325.000849692151
101324.999993457372
101324.999033884102
101325.126175252415
101325.122608028163
101325.119616067721
101325.116697570789
101325.113805784422
101325.111187767397
101325.108952469527
101325.107000656193
101325.105169336384
101325.103367722419
101325.101583992218
101325.099680023108
101325.09754001598
101325.095125822001
101325.092483875589
101325.089721456316
101325.086972432648
101325.084372216821
101325.082023980678
101325.07990540094
101325.078040570093
101325.076516804649
101325.075606700862
101325.074694824725
101325.074542440256
101325.073938527348
101325.07331014282
101325.071130091455
101325.070429040978
101325.069858221934
101325.068725055855
101325.068010073577
101325.066881235034
101325.065556039961
101325.064037481861
101325.062816360354
101325.062513308076
101325.061749826709
101325.058462990026
101325.053376174183
101325.050142083812
101325.047438070615
101325.044439952908
101325.041368824983
101325.038356078148
101325.035493828385
101325.032829915639
101325.03039308697
101325.028199455061
101325.026244382592
101325.024532434094
101325.023025360075
101325.021467173428
101325.020439618253
101325.019550527752
101325.018631688159
101325.017737053029
101325.016773296025
101325.015698733201
101325.014480652666
101325.013114496207
101325.011636384646
101325.010135258635
101325.008744436112
101325.00755707096
101325.006532341416
101325.005593562004
101325.004711910049
101325.003881640281
101325.003130474171
101325.00241187957
101325.001639469949
101325.000766247715
101324.999756418052
101324.998511376238
101325.126209683964
101325.122588869432
101325.119538889412
101325.116608546101
101325.113757085899
101325.111213044147
101325.109095175067
101325.107231022572
101325.105320819333
101325.103324487369
101325.101258477443
101325.099121775813
101325.096865131287
101325.094463434783
101325.091938322439
101325.089369399269
101325.086800338569
101325.084282341588
101325.081975940047
101325.080159470876
101325.078864757335
101325.077611005268
101325.076552091399
101325.075778422557
101325.074790093408
101325.073958390407
101325.072853821141
101325.071640262599
101325.070493799751
101325.069498833749
101325.067940936991
101325.068288821712
101325.066523847374
101325.064902979095
101325.063257150876
101325.061403586049
101325.058980068221
101325.05604382648
101325.052881796742
101325.050519037279
101325.048866033598
101325.04651392813
101325.044015662352
101325.041287526081
101325.038461819524
101325.035768959206
101325.033261016826
101325.030943518927
101325.028826045236
101325.02686036595
101325.025027584881
101325.02339103978
101325.022194929028
101325.021044058027
101325.019936321827
101325.018825236577
101325.017825654228
101325.016716024562
101325.015528412943
101325.01428325905
101325.012972745841
101325.011616532225
101325.010272048181
101325.009004667387
101325.00785489523
101325.006806237448
101325.005826968001
101325.004908326155
101325.00403768511
101325.003199575847
101325.002429035245
101325.0016451837
101325.000803080431
101324.999787920693
101324.998425625919
101325.126598034782
101325.123139284377
101325.120242744888
101325.117425828357
101325.114600809495
101325.111899792755
101325.109400828762
101325.107106228839
101325.105114840451
101325.103225724743
101325.101230030108
101325.099142369101
101325.096949079249
101325.094602378551
101325.092137041356
101325.089677693511
101325.087276380698
101325.084956178151
101325.082789432112
101325.080763001955
101325.078856370266
101325.07730270295
101325.076623684829
101325.075665375378
101325.074749788764
101325.073969729419
101325.072968162829
101325.071463713452
101325.070382448495
101325.069156279569
101325.067940660112
101325.067181381804
101325.065888008059
101325.064438855974
101325.062749953577
101325.060890480585
101325.058886062689
101325.056894171081
101325.055738465526
101325.055779355695
101325.053044653105
101325.049249061049
101325.045693974884
101325.042005963798
101325.038808422047
101325.036046017587
101325.033488107234
101325.031114690792
101325.028962262717
101325.027031629783
101325.025306519965
101325.023798374765
101325.02250309565
101325.021367754787
101325.020324879617
101325.019246571203
101325.017885247464
101325.016706136914
101325.015490471851
101325.014176699304
101325.012841021598
101325.011529489348
101325.010273188454
101325.009067368752
101325.007928524821
101325.006868743047
101325.005876940209
101325.004953765121
101325.004150225519
101325.003411584592
101325.002592107005
101325.00178898657
101325.001019851741
101325.000211948442
101324.999254378694
101325.126795839373
101325.123364463696
101325.120455137527
101325.117598160461
101325.114712834984
101325.1120602679
101325.109731219491
101325.107616762267
101325.105515474788
101325.1033288529
101325.10112732694
101325.098967290789
101325.096712131504
101325.094308404325
101325.091821896582
101325.089357176083
101325.086949447665
101325.084615299711
101325.082514455411
101325.080932238692
101325.08031379366
101325.078875083986
101325.07697100933
101325.075712595353
101325.074768032617
101325.073702902839
101325.072498969486
101325.071408291551
101325.070134073219
101325.068789814031
101325.067650986341
101325.066598516918
101325.065297633264
101325.063913913458
101325.062414936066
101325.060660872667
101325.058760600194
101325.056690211291
101325.054470811549
101325.051553879777
101325.048824489655
101325.046242739365
101325.043314316717
101325.040797945127
101325.038453482572
101325.036053556716
101325.033680006789
101325.031416455851
101325.029308518526
101325.027351937926
101325.025549093276
101325.023916216291
101325.022470149212
101325.021138482451
101325.019997655269
101325.019004064176
101325.017929274734
101325.01665796485
101325.015436316142
101325.014206405802
101325.012912734936
101325.011594494223
101325.010341209199
101325.009181710702
101325.008071253629
101325.007020655132
101325.006022474743
101325.005077522408
101325.004190322725
101325.003312169109
101325.002481640127
101325.001742767519
101325.001066856144
101325.000478202855
101325.000096306438
101325.126592239641
101325.123056816738
101325.120046111217
101325.117116828929
101325.11425519576
101325.111645258919
101325.109421114743
101325.107396400446
101325.10533573151
101325.103264593621
101325.101290898165
101325.099176109172
101325.096862749982
101325.094460586697
101325.092034839501
101325.089621908541
101325.087261952824
101325.084883995558
101325.082807678526
101325.081402203825
101325.079121446921
101325.077832468087
101325.076659659026
101325.075531773007
101325.074565684321
101325.073587814535
101325.072524204443
101325.071485287757
101325.070452060085
101325.069573878674
101325.068390091328
101325.06698512772
101325.065411432661
101325.063853789485
101325.062191654215
101325.060487035531
101325.058560620877
101325.056543999206
101325.054338414164
101325.051893986645
101325.049267075185
101325.046726688422
101325.044472314505
101325.042530643244
101325.040421754282
101325.037995178718
101325.035711521108
101325.033693351055
101325.031827027691
101325.030068287422
101325.028373362904
101325.026714432621
101325.025086937574
101325.023453435235
101325.021545673342
101325.019558596017
101325.018100238914
101325.016807685097
101325.015464957512
101325.014135445817
101325.012820610296
101325.011555258461
101325.010336121049
101325.009126156117
101325.007992179075
101325.006941989835
101325.005955245884
101325.005022463854
101325.004129615205
101325.003327786661
101325.002610369236
101325.001913014275
101325.001256550808
101325.000719333315
101325.000464153083
101325.126675763255
101325.123254185717
101325.120391264209
101325.117603205974
101325.114783574158
101325.112163471902
101325.109767078058
101325.107558312826
101325.105422078937
101325.103312859239
101325.101333148283
101325.099222875986
101325.097111579787
101325.094836370277
101325.092336256886
101325.08977859054
101325.087178739937
101325.084982672925
101325.083523471956
101325.081213999947
101325.079674438617
101325.07798750684
101325.076819313967
101325.07580022348
101325.074711928974
101325.073631350067
101325.072554145459
101325.071535842726
101325.070225214236
101325.069091004669
101325.067844584933
101325.066524572947
101325.065270817198
101325.063908075812
101325.062339524346
101325.060588732915
101325.058667897145
101325.05665874487
101325.054584604484
101325.052551441797
101325.051083365455
101325.048369467913
101325.044917229548
101325.041744736911
101325.03873932478
101325.03597709976
101325.03338478427
101325.031003185897
101325.02883476358
101325.026897401622
101325.02517739356
101325.023669528353
101325.022342943499
101325.021164571051
101325.020097206419
101325.019100675854
101325.017959829274
101325.01680041253
101325.015574436417
101325.014267752631
101325.012910539677
101325.011517471081
101325.010111848023
101325.008838990514
101325.007725555741
101325.006702033905
101325.005748532378
101325.004864414281
101325.004042381726
101325.00326017414
101325.002519645874
101325.001810099333
101325.001125964118
101325.000467409438
101324.999881331518
101325.126279664895
101325.122676734769
101325.119603869185
101325.116612203565
101325.113705339158
101325.111110958664
101325.109075455417
101325.107228463006
101325.105262870304
101325.103213731505
101325.100983955388
101325.09888369136
101325.096729553552
101325.09449802243
101325.092126415897
101325.08965055841
101325.087006982591
101325.084660452514
101325.082662562258
101325.080288365454
101325.078466133986
101325.077390875958
101325.076531317594
101325.07548539745
101325.074450538508
101325.073494444878
101325.072473761757
101325.07137361214
101325.070215914937
101325.069107525851
101325.067876242232
101325.066523911635
101325.065153719785
101325.063673970973
101325.062158830333
101325.060575935277
101325.058836639844
101325.056859888995
101325.054726103175
101325.051984186895
101325.048801057055
101325.046549124803
101325.044258993919
101325.041489120515
101325.038620962339
101325.035898157352
101325.033363814888
101325.031060796318
101325.029007899691
101325.027136372722
101325.025379220315
101325.02374593979
101325.022326119215
101325.021169657586
101325.020154759521
101325.019113425762
101325.017978458491
101325.016769971277
101325.015512969199
101325.014240014425
101325.012911755723
101325.011473651131
101325.010014046522
101325.00868755611
101325.007532774718
101325.006497875322
101325.005548709596
101325.004683436229
101325.003889274638
101325.003156534105
101325.002477505666
101325.00181889534
101325.001142647161
101325.000428747167
101324.999659609806
101325.126277184769
101325.122759777252
101325.1197922914
101325.116884865187
101325.113991548744
101325.111408302429
101325.109166656504
101325.107073536667
101325.105073963758
101325.103213894792
101325.101466930399
101325.099545559147
101325.097375343175
101325.095057027793
101325.092651505125
101325.090206817316
101325.087707790968
101325.084897740599
101325.082182234517
101325.080117613164
101325.07848292953
101325.077236516634
101325.075998008833
101325.074883004912
101325.074003561545
101325.073160572574
101325.07226843643
101325.071290822452
101325.070278960862
101325.069215337979
101325.068059924277
101325.06679933249
101325.065385410431
101325.063942438908
101325.062426818477
101325.060912511821
101325.059272983563
101325.057461143238
101325.055544751362
101325.054265964209
101325.051181037896
101325.047715935711
101325.044750268469
101325.041736299259
101325.038630371826
101325.035654354142
101325.032903175699
101325.030430065832
101325.028291615192
101325.026483895737
101325.024888076819
101325.023519110604
101325.022368804319
101325.021251756538
101325.020089149693
101325.018976874489
101325.017958642333
101325.016919055561
101325.01577358348
101325.014464560183
101325.012996928548
101325.011418073569
101325.009794454236
101325.008303453535
101325.007102866599
101325.006091034738
101325.005201508102
101325.004408209687
101325.003678037698
101325.003002474463
101325.002373924406
101325.001751008327
101325.001082445422
101325.000305692854
101324.999292373846
101325.125451474101
101325.121642416227
101325.118421930631
101325.115310505294
101325.112300405686
101325.109779734834
101325.107833330621
101325.106282269029
101325.104831265679
101325.10320081911
101325.101196441785
101325.099095260273
101325.096896063333
101325.094526077068
101325.092014603826
101325.089337177997
101325.086720901149
101325.084065618415
101325.080277094428
101325.078050526718
101325.076787587066
101325.076354724399
101325.075702327144
101325.074758178191
101325.073932043626
101325.073216576784
101325.072411868867
101325.071479996186
101325.070482418974
101325.069447908085
101325.068340392085
101325.067136260317
101325.065815568945
101325.064363516474
101325.062882629863
101325.061354203906
101325.059788519182
101325.058003031008
101325.055269412347
101325.05185479678
101325.050009392697
101325.047763194816
101325.044807754181
101325.041573526367
101325.038325110203
101325.035229721849
101325.0324417792
101325.030094526854
101325.028107289065
101325.026266929475
101325.024444087423
101325.022692123966
101325.021428582055
101325.020666466808
101325.019876367645
101325.01899565458
101325.018081834452
101325.017149784093
101325.016106673836
101325.014810933542
101325.013278585757
101325.011564880348
101325.009611714791
101325.007909926717
101325.006671830517
101325.005624859114
101325.004789281928
101325.004091334995
101325.003423993461
101325.002814806736
101325.002281651541
101325.001754538564
101325.001172165721
101325.000528996155
101324.999805804488
101325.125490585124
101325.121730430998
101325.11843451162
101325.11512258045
101325.111922411204
101325.109214253811
101325.107039097813
101325.105649516263
101325.104565826216
101325.103332976985
101325.102100063363
101325.100575835095
101325.098492897538
101325.095968201771
101325.09322815972
101325.090106897638
101325.087275495578
101325.084487893357
101325.080447490414
101325.077761718829
101325.076276025866
101325.075304774786
101325.074655273434
101325.074044413443
101325.073473552664
101325.072922327236
101325.072272598176
101325.071470167983
101325.070607169051
101325.069673726655
101325.068676609691
101325.067620409725
101325.066454041575
101325.064962091419
101325.063224329395
101325.061601688198
101325.060250371054
101325.059159694356
101325.059311795587
101325.056084824173
101325.051927017208
101325.048750253802
101325.045579825644
101325.04196601671
101325.03820599035
101325.034619533792
101325.03136682183
101325.028595277254
101325.026590719091