/*--------------------------------*- C++ -*----------------------------------*\
  =========                 |
  \\      /  F ield         | OpenFOAM: The Open Source CFD Toolbox
   \\    /   O peration     | Website:  https://openfoam.org
    \\  /    A nd           | Version:  8
     \\/     M anipulation  |
\*---------------------------------------------------------------------------*/
FoamFile
{
    version     2.0;
    format      ascii;
    class       surfaceScalarField;
    location    "0.1";
    object      phi;
}
// * * * * * * * * * * * * * * * * * * * * * * * * * * * * * * * * * * * * * //

dimensions      [1 0 -1 0 0 0 0];

internalField   nonuniform List<scalar> 
3490
(
2.06165132047938355e-07
7.1283934994281046e-09
1.98530945278669557e-07
7.63414870654446622e-09
1.91630988509352185e-07
6.8999185489004911e-09
1.84522600153929546e-07
7.10834980143028513e-09
1.7722292780313406e-07
7.29963251889054236e-09
1.70040092689638472e-07
7.18278776580987149e-09
1.63112572726402984e-07
6.92742940029424567e-09
1.56421773261527557e-07
6.69049755512482442e-09
1.49936956456197679e-07
6.48364800949631532e-09
1.43648253756493154e-07
6.28454829277618586e-09
1.37535646458418421e-07
6.0998592268231915e-09
1.31551944957874403e-07
5.95052260955820582e-09
1.25630841261496542e-07
5.84850671813897222e-09
1.19719109977639088e-07
5.77897630932576895e-09
5.68642879551433086e-09
1.13830181542878427e-07
2.14987586128302462e-07
5.43427110291288389e-09
2.15689151589184245e-07
6.93254518524801105e-09
2.15655678634329004e-07
6.93335328902351517e-09
2.15397509290491034e-07
7.36648065869805786e-09
2.14741490195436899e-07
7.95561250666617821e-09
2.13706799335056675e-07
8.2174371129987831e-09
2.12395944706487285e-07
8.23823104765098813e-09
2.10855647568592924e-07
8.23069024446109182e-09
2.09086717572171898e-07
8.25227089106889655e-09
2.07088247091716467e-07
8.28201967645172535e-09
2.04860985918178231e-07
8.32408271318613133e-09
2.02399122140908964e-07
8.40421065968302637e-09
1.99705657583891417e-07
8.52288176597645005e-09
1.96826610696499795e-07
8.61985849376990557e-09
8.55069167856160696e-09
1.93897749382567139e-07
2.15166378442953316e-07
3.56135391814191949e-09
2.16842954682393588e-07
5.25593087335680234e-09
2.18012574657762639e-07
5.76369509002606044e-09
2.19095290099679457e-07
6.2837267395655169e-09
2.20098026546496451e-07
6.95283714014332541e-09
2.20901162098916778e-07
7.41426152520822087e-09
2.21526066178003017e-07
7.61328288475774064e-09
2.22020478383714672e-07
7.73621785880945173e-09
2.2238250140863027e-07
7.89012747939481592e-09
2.22591566089829723e-07
8.07263238095816748e-09
2.22639637605803569e-07
8.27508905303846509e-09
2.22530495840300005e-07
8.51088465777833965e-09
2.22280974034786785e-07
8.76653763655136578e-09
2.21938342878241858e-07
8.95041752247184346e-09
8.87855957333473598e-09
2.21589315043066958e-07
2.14366054777528665e-07
2.48873475808762507e-09
2.15514874724878753e-07
4.10707285579621342e-09
2.16544468498860677e-07
4.73406308814774739e-09
2.17632078676422424e-07
5.19607808216959325e-09
2.18821043409493097e-07
5.76383352766093314e-09
2.20014006359085161e-07
6.22125890849899598e-09
2.21157774900069864e-07
6.46947249238120496e-09
2.22264966707605972e-07
6.62897685461197469e-09
2.23344169282734141e-07
6.81085076909452987e-09
2.24389344392848364e-07
7.02730435641816227e-09
2.25403504279558961e-07
7.26055187418704058e-09
2.26407173600389754e-07
7.50627369800834007e-09
2.27431600013445721e-07
7.73994195997735562e-09
2.28506561155763474e-07
7.87102602608094829e-09
7.74323615969957471e-09
2.29633989793166142e-07
2.13983315330479403e-07
1.79885232383078906e-09
2.15046572769748274e-07
3.04377733023011783e-09
2.1607957602671535e-07
3.70102158758172378e-09
2.17122535152283222e-07
4.15308045934118525e-09
2.1825450573089517e-07
4.6318240572423301e-09
2.19422693621918473e-07
5.05303140407771246e-09
2.20573491811531289e-07
5.31863293239464433e-09
2.21717804250431118e-07
5.48461777469939279e-09
2.22880521207395255e-07
5.64807077228374583e-09
2.24071336348737516e-07
5.83637827920186692e-09
2.25298941038663066e-07
6.03270845972037791e-09
2.26582820307350557e-07
6.22184790295899848e-09
2.27943619567297101e-07
6.37793266752023311e-09
2.29383076275699028e-07
6.4290811445788496e-09
6.25791270948954998e-09
2.30863691458333643e-07
2.13848156777729963e-07
1.24411632436872896e-09
2.14608767241479182e-07
2.28312877898199306e-09
2.15428873742213631e-07
2.88087683751023688e-09
2.1631701158171031e-07
3.26490411245912242e-09
2.17310410863408063e-07
3.63838585821437188e-09
2.18387677347666185e-07
3.97572524198013449e-09
2.19504349618045505e-07
4.20191915191098578e-09
2.20645042000413479e-07
4.3438785361879516e-09
2.21819573813884177e-07
4.47347571416264484e-09
2.23037425914430506e-07
4.61841656862473994e-09
2.24306414153273302e-07
4.76349076084935167e-09
2.2563983963568425e-07
4.88790908569618569e-09
2.27050174673062366e-07
4.96646725931597241e-09
2.28529786421801034e-07
4.9470992374717836e-09
4.7540035380619493e-09
2.30028926294472802e-07
2.1363768171967546e-07
8.99853511862182467e-10
2.14308708415338996e-07
1.61206397674712885e-09
2.15120570711790439e-07
2.06897627604915378e-09
2.16010072853439041e-07
2.3753634449176979e-09
2.16990862041822294e-07
2.65755771887035278e-09
2.18049057969801126e-07
2.91748952525019223e-09
2.19143722358651052e-07
3.10721293948895906e-09
2.20257761877217806e-07
3.22979142536550083e-09
2.21400857389255734e-07
3.33031425048929756e-09
2.22584964881207662e-07
3.4341908227700662e-09
2.23814974206586949e-07
3.53322805048237865e-09
2.25091922014169587e-07
3.61038601214998819e-09
2.2640959694015574e-07
3.64751018030290767e-09
2.27740352884584889e-07
3.61361965521272479e-09
3.46206642703955433e-09
2.29026728415844469e-07
2.13653474940548892e-07
5.39791746972406558e-10
2.1422961000309905e-07
1.03589080594517255e-09
2.14932181010464857e-07
1.36636700002537251e-09
2.15723863620640588e-07
1.5836423102530429e-09
2.16610202934485999e-07
1.77117946073935197e-09
2.17585309398784735e-07
1.9423432075405089e-09
2.18625140235755043e-07
2.06734003387771057e-09
2.19708804348279595e-07
2.14608012313496966e-09
2.20831589718185253e-07
2.20746382621678033e-09
2.2199685157782543e-07
2.26881273190146831e-09
2.23205215798069445e-07
2.32461742656209108e-09
2.24452722295965146e-07
2.36232405605541767e-09
2.25731168858284005e-07
2.36783287912131384e-09
2.27020147959238801e-07
2.32201624069168306e-09
2.1990612910282399e-09
2.2827796958416074e-07
2.13540638343277813e-07
2.92566153173389309e-10
2.14053543507283243e-07
5.22947507477464136e-10
2.14748050019618561e-07
6.71822197879965807e-10
2.15561184463746475e-07
7.70469336497482248e-10
2.16471371557821464e-07
8.60953480378031055e-10
2.17467320203537379e-07
9.46354693986432095e-10
2.18522663968963948e-07
1.01195479722741248e-09
2.19613246650719736e-07
1.05545006021360075e-09
2.20733017990568375e-07
1.08762827145921344e-09
2.21885733642842675e-07
1.11598576619942889e-09
2.23072635166161819e-07
1.13748123686531204e-09
2.24289195182398881e-07
1.14523681481007504e-09
2.25524336610154813e-07
1.13152241400924974e-09
2.26754553111479662e-07
1.08930795003455361e-09
1.01175232096702267e-09
2.27936986005817912e-07
2.13582319612715767e-07
3.65726423484937216e-12
2.14101097247751446e-07
4.13173100975360122e-12
2.1476983093698679e-07
3.05020213679858486e-12
2.15539105640699869e-07
1.15609235899785656e-12
2.16399935919965562e-07
8.45425635944484934e-14
2.1734608545533885e-07
1.65002237845392065e-13
2.18357374429407384e-07
6.23658953073762655e-13
2.19412616350799506e-07
1.60736518014619486e-13
2.20500343371094289e-07
-1.63900365539566387e-13
2.2161621752502793e-07
-4.4647241689128871e-15
2.22757768113288692e-07
-4.31604857669481346e-12
2.2392467872734805e-07
-2.22288593492489001e-11
2.25109550525403834e-07
-5.45782995876778212e-11
2.26296843593321451e-07
-1.00565269607295311e-10
-1.60518035213343104e-10
2.27464054808241368e-07
2.13589266465515153e-07
-2.92198641222592461e-10
2.14113545119098892e-07
-5.20185099445108974e-10
2.1478327000894239e-07
-6.66713029471381565e-10
2.15547376347929614e-07
-7.62988895729670606e-10
2.16398298451659433e-07
-8.50876954539260651e-10
2.17332411499245202e-07
-9.33987563537671863e-10
2.18330880019622802e-07
-9.9788639877885378e-10
2.19372108640075808e-07
-1.0411159993275646e-09
2.20449314416955983e-07
-1.07743557033139551e-09
2.21569083358666493e-07
-1.11988883538194096e-09
2.22733277669811406e-07
-1.16875533650562299e-09
2.2392988318405795e-07
-1.21938851839602823e-09
2.25144983679633442e-07
-1.27089120298350059e-09
2.26361617970750407e-07
-1.31952008562425674e-09
-1.35168761449230336e-09
2.27548502404869058e-07
2.13541029944931287e-07
-5.39815913945201414e-10
2.14055070881651405e-07
-1.03426423638365174e-09
2.1475038416906058e-07
-1.3620647058247908e-09
2.15563106216970345e-07
-1.57574964030277841e-09
2.16471666851082017e-07
-1.75947677229662178e-09
2.17464306728162639e-07
-1.92666719215895424e-09
2.18514511630393413e-07
-2.04813327794142929e-09
2.19598060071896062e-07
-2.12471186728380404e-09
2.20709147758499103e-07
-2.18858788701352778e-09
2.21850947490120672e-07
-2.26180194486321417e-09
2.23023222193204148e-07
-2.34126879005812216e-09
2.24219003891283208e-07
-2.41570810484062821e-09
2.25425219797238099e-07
-2.4782656915193914e-09
2.26617509156687533e-07
-2.51410559701743731e-09
-2.49479633991515147e-09
2.2775625244562936e-07
2.13652894519486365e-07
-8.99297403425775936e-10
2.14228642206617677e-07
-1.61005014501565477e-09
2.14931053300997698e-07
-2.064514202265656e-09
2.15722910057309399e-07
-2.36764509023516459e-09
2.16609506476837317e-07
-2.64611231543951265e-09
2.17584837779159182e-07
-2.90203831374754689e-09
2.18624520013694557e-07
-3.08785717051505449e-09
2.19707416704519439e-07
-3.20765726854898014e-09
2.2082759367410093e-07
-3.30883245622893264e-09
2.21985594824423781e-07
-3.41992357451295462e-09
2.23179760982450083e-07
-3.53569587468277585e-09
2.24406008360432484e-07
-3.64255030742648264e-09
2.25655086360418513e-07
-3.72862151511528884e-09
2.26905769448334952e-07
-3.76737556211961841e-09
-3.71048146620274543e-09
2.28116432605442642e-07
2.13637426560129977e-07
-1.24330517084387241e-09
2.14308266579803768e-07
-2.28092839295142961e-09
2.15120209436439762e-07
-2.87649546600794615e-09
2.16010092299129715e-07
-3.25756664451221593e-09
2.16991427511031628e-07
-3.62748664517854869e-09
2.1805016717901289e-07
-3.96081788634051977e-09
2.19145075545124864e-07
-4.18280754628359993e-09
2.20258475392270661e-07
-4.32110585854563858e-09
2.21398697518241487e-07
-4.44912291945203401e-09
2.2257539450522902e-07
-4.59674464362808404e-09
2.23790844157381592e-07
-4.75141701269198427e-09
2.2504346359372806e-07
-4.895795268451959e-09
2.26322649147020361e-07
-5.00919769130065205e-09
2.27594317887994777e-07
-5.04198069026499348e-09
-4.91468185320197148e-09
2.28792580163672879e-07
2.13848082578088555e-07
-1.79796715679539675e-09
2.14608674290299891e-07
-3.0415583434530928e-09
2.15428964630969313e-07
-3.696824223085678e-09
2.16317560658244904e-07
-4.14620136528743926e-09
2.17311623075320277e-07
-4.6215881858962399e-09
2.18389545736459337e-07
-5.03878044428186502e-09
2.19506449335771319e-07
-5.29975297045178601e-09
2.20646063908543202e-07
-5.46076792930903705e-09
2.21816484759111021e-07
-5.61960787411747639e-09
2.23024465621449033e-07
-5.8048362281059408e-09
2.24274357227780538e-07
-6.00153971930165849e-09
2.25575776728723874e-07
-6.19772700907590854e-09
2.26937831942623063e-07
-6.37236446996166924e-09
2.28351763098145145e-07
-6.45822947874534951e-09
-6.33864805430502182e-09
2.29771073199194065e-07
2.13983379154794493e-07
-2.48791358006064285e-09
2.15046834513913166e-07
-4.10505194532925623e-09
2.16080278275955674e-07
-4.73030640723328259e-09
2.17123953049254245e-07
-5.18991484074616734e-09
2.18256853382689316e-07
-5.75452764772694827e-09
2.19425970947588509e-07
-6.20793789777882331e-09
2.20577218671922968e-07
-6.4510423811056476e-09
2.21720520102983281e-07
-6.60411619441933063e-09
2.22878938494784483e-07
-6.77808831513961335e-09
2.24059176159956863e-07
-6.98517897025750363e-09
2.25265537010922161e-07
-7.20811698193645412e-09
2.26511481819706904e-07
-7.44414805339123163e-09
2.27809932016408502e-07
-7.67184204748733392e-09
2.29154618508138222e-07
-7.80503360779464553e-09
-7.69228215159159321e-09
2.30504097715276514e-07
2.14366148875099976e-07
-3.5606270558912823e-09
2.15515241194394679e-07
-5.25418251884171409e-09
2.16545367513405588e-07
-5.76047115654370053e-09
2.17633851254496916e-07
-6.27843729382407811e-09
2.188240201536649e-07
-6.94473569425703765e-09
2.20018371648118457e-07
-7.40232934775912617e-09
2.21163311680333948e-07
-7.59602438681341109e-09
2.22270612995984791e-07
-7.71146568662771045e-09
2.23347310932152831e-07
-7.85485411670537206e-09
2.24384962512789883e-07
-8.02295749052316853e-09
2.25383510275301693e-07
-8.20695219132561991e-09
2.26360373047494858e-07
-8.42168442135937627e-09
2.27344820259949949e-07
-8.65777667851436786e-09
2.28367503946919858e-07
-8.83070722630625007e-09
-8.76542878718531508e-09
2.29435228379391823e-07
2.15166591432958915e-07
-5.43375744425814198e-09
2.16843637407902863e-07
-6.93126676105917648e-09
2.18014109071614446e-07
-6.93098126372345242e-09
2.19098212947877721e-07
-7.36257989846759786e-09
2.20103016545668922e-07
-7.9495784979979331e-09
2.20909019713067618e-07
-8.20837281333622555e-09
2.21537709331613807e-07
-8.22475791977524125e-09
2.22036866564976067e-07
-8.21068054770585406e-09
2.22404453185853362e-07
-8.22254846070099511e-09
2.22619430250162699e-07
-8.23820803992932423e-09
2.22672871714875803e-07
-8.26115274529107109e-09
2.2256707025735852e-07
-8.31788159274117819e-09
2.22316765108150476e-07
-8.41218074500916114e-09
2.21966905504638134e-07
-8.49052641670921312e-09
-8.41661246961747652e-09
2.21601001287822276e-07
2.14987837611814581e-07
-7.12813157263297094e-09
2.15690049562537914e-07
-7.63351698633623587e-09
2.1565770311061151e-07
-6.89867326403736286e-09
2.15401506415531461e-07
-7.10642196278073513e-09
2.14748590019309818e-07
-7.29670154537264486e-09
2.13718616358302209e-07
-7.17844113791561486e-09
2.12414842692382515e-07
-6.92103818294006261e-09
2.10885150852817613e-07
-6.6810960227019872e-09
2.09132007815371857e-07
-6.4697226007745143e-09
2.07156515124793279e-07
-6.26374853395936729e-09
2.04961484853425862e-07
-6.0692684701350733e-09
2.02542163642610278e-07
-5.90705767473901309e-09
1.99899692962268369e-07
-5.78967535323480639e-09
1.97073683658674019e-07
-5.7048014413766132e-09
-5.59985422383302761e-09
1.94188007209986949e-07
2.06165393771029677e-07
1.98531838545275516e-07
1.91633126861435168e-07
1.84526666111968837e-07
1.7722992448747185e-07
1.70051435951966732e-07
1.63130308662322019e-07
1.56448920156284436e-07
1.4997807418589239e-07
1.43710353329807992e-07
1.37628928396832154e-07
1.31690209341062396e-07
1.25830878795185813e-07
1.19997123386529809e-07
1.14196587755954589e-07
1.09152789640768236e-07
4.47523833616063746e-09
1.04608987264146364e-07
4.318660147719562e-09
1.00434014042791981e-07
3.95076962002136603e-09
9.69889929135975276e-08
3.24281602197492125e-09
9.46635282960949531e-08
2.15490528781506017e-09
9.37330779005197404e-08
7.87201147301439972e-10
9.40181740399793573e-08
-4.34570704659986186e-10
9.47890812542810166e-08
-1.01215673540808726e-09
9.5488098528042165e-08
-1.05469895391219554e-09
9.60026737362597861e-08
-9.1749423587781001e-10
9.63768838633613891e-08
-7.57343074054138657e-10
9.63825766230353696e-08
-2.68882537801797817e-10
9.55869578998106409e-08
5.65508401163743396e-10
9.41181646717857435e-08
1.2161831871525763e-09
9.20065673738735159e-08
1.85600494704400942e-09
8.93743246572895873e-08
2.40626867270414387e-09
8.64423920135926884e-08
2.75545095353333831e-09
8.35333645681952145e-08
2.78328991419007639e-09
8.10735793569367029e-08
2.3735336184031524e-09
7.96172824219444149e-08
1.39746394152238169e-09
7.96406201785361252e-08
-6.44386478343814138e-11
8.09271960304980733e-08
-1.32283373831795406e-09
8.27225819206416401e-08
-1.82795593465780815e-09
8.47543730368182679e-08
-2.05979658472106875e-09
8.68598852230469671e-08
-2.12833985376414666e-09
8.89444432658436045e-08
-2.1045834504419246e-09
9.09084434727011769e-08
-1.98408347336088941e-09
9.26690794191157168e-08
-1.78234459177836392e-09
9.41662008377170888e-08
-1.51704064517814311e-09
9.53645661278130841e-08
-1.21333413393747772e-09
9.62821564618049155e-08
-9.24384685626645408e-10
9.69923550652929953e-08
-7.17677218988116336e-10
9.76790376278055202e-08
-6.95554126336881669e-10
9.79170061947515469e-08
-2.41841430694859399e-10
9.71003592342987575e-08
8.12176347536389842e-10
9.58608172006414573e-08
1.2354664397581621e-09
9.44657097938459057e-08
1.39242167009243746e-09
9.29714845953914639e-08
1.49272746521341927e-09
9.13961597190305998e-08
1.57425639101974303e-09
8.96821145454832741e-08
1.71348369245901384e-09
8.77373825273248044e-08
1.94449846186153091e-09
8.54950673334451908e-08
2.24212148613119514e-09
8.2941704318350121e-08
2.55321569568430869e-09
8.01679681519739202e-08
2.77362608888583468e-09
7.73977654619105685e-08
2.77012200984867765e-09
7.49644871698128892e-08
2.43321687264880305e-09
7.32976120802481605e-08
1.66682756652486169e-09
7.28100485080558578e-08
4.87528171923056978e-10
7.2952394014252974e-08
-1.42373355411897197e-10
7.27652044119527159e-08
1.87165718909228485e-10
7.25578922266337887e-08
2.07291154889684392e-10
7.27883967728376225e-08
-2.3052405041220909e-10
7.34919461753775595e-08
-7.0356701752674821e-10
7.43665222091680696e-08
-8.74589323700603449e-10
7.52679951640947709e-08
-9.01484541108033073e-10
7.61188574068290699e-08
-8.508721384362196e-10
7.69179722225521417e-08
-7.99122998585838327e-10
7.76299237131254553e-08
-7.1195870640183013e-10
7.80674138484202113e-08
-4.37497782492935655e-10
7.78935388006675557e-08
1.73866377002161099e-10
7.72779278579332013e-08
6.15601829366259098e-10
7.6543295244969099e-08
7.34623601581652465e-10
7.58813685608199861e-08
6.61918079553015951e-10
7.51764045143134101e-08
7.04957116170367803e-10
7.52982801128096613e-08
-1.21879960578512723e-10
7.59756640783351193e-08
-6.77387956084512018e-10
7.68118121988330495e-08
-8.36152056943872274e-10
7.77905247224229711e-08
-9.78716135313842825e-10
7.89101252609673967e-08
-1.11960357022668732e-09
8.0208848113418418e-08
-1.2987252148042839e-09
8.17124292317047694e-08
-1.50358279501967329e-09
8.33800653973629355e-08
-1.66763719895329701e-09
8.51138360416328648e-08
-1.73377109271033854e-09
8.67754306424311256e-08
-1.6615945216163311e-09
-1.40926020912749326e-09
1.91585413816703603e-07
6.71747134879065572e-09
1.89398416026211818e-07
6.42037908811863559e-09
1.87500742298211419e-07
5.75642845248984225e-09
1.860282332393947e-07
4.62689030292760356e-09
1.85046588892017772e-07
3.05684886504247578e-09
1.84412780032772546e-07
1.34380301217741112e-09
1.8378068774104292e-07
1.16141194920871564e-10
1.83181877416449608e-07
-5.0348448197454599e-10
1.82776848965230175e-07
-7.97581408041053218e-10
1.82396438564429287e-07
-7.79321187819319654e-10
1.81628320781803694e-07
-3.89278982720595049e-10
1.80401340147381659e-07
5.45561019968891102e-10
1.7903653866483249e-07
1.47270972893243906e-09
1.77363013447269123e-07
2.39119248879519367e-09
1.75417014614028146e-07
3.27833838225572638e-09
1.73327961066836133e-07
3.97740961073987122e-09
1.71290444022490488e-07
4.31655842447059381e-09
1.69536858572122454e-07
4.12607326703686853e-09
1.68295355739774042e-07
3.27750706216803658e-09
1.67803313011620161e-07
1.61306804370823668e-09
1.67622096310218903e-07
-1.07431623858953987e-10
1.67307990993567472e-07
-1.20896962775055452e-09
1.67302027204591931e-07
-2.02254174768261429e-09
1.67579811259117462e-07
-2.52800511631210294e-09
1.68167846684461409e-07
-2.88273933218177037e-09
1.69112900507243002e-07
-3.13786429320669183e-09
1.70348694433003124e-07
-3.28831889844334466e-09
1.71852161629601784e-07
-3.35043183456959641e-09
1.73602041337468578e-07
-3.34111070444378803e-09
1.75549075129045086e-07
-3.25382377563418718e-09
1.77609763949900573e-07
-3.09897211659423689e-09
1.79717498618802382e-07
-2.8649480872694773e-09
1.81113545228905685e-07
-2.12619814137068702e-09
1.81276624484729164e-07
-4.47236507587460186e-10
1.81333004282934086e-07
7.13951049714704605e-10
1.81268548728940575e-07
1.27818404133466877e-09
1.81214148578738125e-07
1.43951941436519387e-09
1.80935394629699935e-07
1.7578220244488459e-09
1.8034227558181095e-07
2.14973640292090808e-09
1.79354605121610562e-07
2.68892360668867194e-09
1.77956856811480768e-07
3.33666002823635277e-09
1.76212231699399771e-07
3.98359147037586056e-09
1.74251670160676179e-07
4.51179100867812355e-09
1.72235151147602451e-07
4.78887050201897167e-09
1.7030960155546711e-07
4.69485705070187428e-09
1.6857380332933963e-07
4.16846287147439615e-09
1.67041083475558446e-07
3.19911271949553175e-09
1.65371422097751018e-07
2.15680109924424413e-09
1.63207138370085779e-07
2.02161616586372387e-09
1.61501556617014338e-07
1.89256658737504543e-09
1.60999269066735894e-07
7.09466934373461172e-10
1.6088235883763366e-07
-1.13697891136325346e-10
1.61078000373988136e-07
-8.99267908596514314e-10
1.61830556033869743e-07
-1.62718468330236776e-09
1.63044264687060471e-07
-2.11522453589431139e-09
1.64620005848611015e-07
-2.42663807154660698e-09
1.66295884548548541e-07
-2.47503010138877536e-09
1.6767101314634502e-07
-2.0871020611625755e-09
1.68268596343810117e-07
-1.03509230542310539e-09
1.68494703047055945e-07
-5.22507788314796096e-11
1.68853324963457779e-07
2.56968314036414961e-10
1.68853159103997783e-07
7.34776727045048772e-10
1.68711490119601673e-07
8.0357434913195655e-10
1.69506249860923532e-07
-8.98141203052955343e-11
1.69764630067543433e-07
-3.80269237475323068e-10
1.69855941899026457e-07
-7.68705222941446433e-10
1.70194432522419668e-07
-1.17464676367164744e-09
1.70719390035377436e-07
-1.50367748281213808e-09
1.71429204087334488e-07
-1.829420971151762e-09
1.72218635483286256e-07
-2.088159198643031e-09
1.72943419819255534e-07
-2.22836899718639345e-09
1.73524313306767603e-07
-2.24853188089616167e-09
1.73951260071408011e-07
-2.16071845654769236e-09
1.74275547925319825e-07
-1.98588246243885515e-09
-1.76827731450954905e-09
2.214028229448683e-07
6.88032842653971179e-09
2.21370179118870397e-07
6.42316236366437056e-09
2.21519894113185069e-07
5.57270654742577962e-09
2.21780107662871794e-07
4.33122522026594472e-09
2.21934405942397549e-07
2.8667091071862255e-09
2.21809629306946558e-07
1.43001988174989011e-09
2.21555652272704968e-07
3.23955350070550547e-10
2.21326655967070089e-07
-3.29367948460360856e-10
2.21021902650452238e-07
-5.8480499492446663e-10
2.20486835915903864e-07
-4.0779640898212056e-10
2.19581260763700684e-07
2.95614533770114069e-10
2.18555388701152663e-07
1.27999940242790697e-09
2.17250085420475712e-07
2.40642341223732849e-09
2.15640446950847734e-07
3.53942001955352787e-09
2.13875249008508768e-07
4.49578754679015074e-09
2.12151145082587514e-07
5.0929565791328668e-09
2.1070249812461097e-07
5.14862335080233974e-09
2.09690469066159097e-07
4.56371241525229201e-09
2.09126115967309438e-07
3.34373529735633038e-09
2.08772423470748418e-07
1.5625059967201085e-09
2.08680006605432319e-07
-3.48367671265760634e-10
2.08876354385473588e-07
-1.73173599638074177e-09
2.09163700102743061e-07
-2.68756016373912444e-09
2.09460250598926467e-07
-3.2672155124249977e-09
2.09645138802049112e-07
-3.52855092173465125e-09
2.09744268045918286e-07
-3.55170972114380211e-09
2.09663098278322163e-07
-3.40848322672265573e-09
2.09356252816437561e-07
-3.19412658198756413e-09
2.08875270007590602e-07
-2.96092415762684661e-09
2.08236310578924545e-07
-2.75635973540379767e-09
2.07438372197621952e-07
-2.5476853749821363e-09
2.0663386969582319e-07
-2.14507658282046324e-09
2.05860781512659325e-07
-1.44543999225474223e-09
2.06226739371726143e-07
-9.16342402679158079e-10
2.07590168227567493e-07
-7.32872452886454739e-10
2.09279529921978996e-07
-4.70681799885442854e-10
2.10634894190830242e-07
4.93697439502512713e-11
2.11455762852345877e-07
9.12054565628181984e-10
2.11877788656744969e-07
1.70278600301004142e-09
2.11976905185959856e-07
2.56922704789232572e-09
2.11870526153352542e-07
3.42824305604134367e-09
2.11642547240935672e-07
4.20237135739296007e-09
2.11356556905355595e-07
4.79140043392697737e-09
2.11060292332402369e-07
5.08086621952179134e-09
2.10762410490931531e-07
4.9912502046511863e-09
2.10391256953340714e-07
4.53813850367069683e-09
2.0969110557890769e-07
3.8979886748648119e-09
2.08542814302894671e-07
3.30390194307063308e-09
2.07590375107745772e-07
2.97302454933763548e-09
2.06937348982849956e-07
2.54475344272817933e-09
2.05892941442235558e-07
1.75340653508475667e-09
2.04948739627450585e-07
8.30259348009637787e-10
2.04000026603167121e-07
4.92830926951585912e-11
2.03216148190730663e-07
-8.43425328208105246e-10
2.02683607663732047e-07
-1.5827723654094726e-09
2.02408781561411713e-07
-2.15188100489484761e-09
2.02411360804750976e-07
-2.47766553375611873e-09
2.02786543296261458e-07
-2.46234127808840495e-09
2.03776830495761744e-07
-2.02540369026916887e-09
2.05175923669876664e-07
-1.45136133681706671e-09
2.06305870404688572e-07
-8.72991156838693025e-10
2.07290307886921185e-07
-2.49672911753552189e-10
2.08101187910587823e-07
-7.31670943389289911e-12
2.08828180173022613e-07
-8.1681659708877819e-10
2.09575539797037825e-07
-1.12763797668146547e-09
2.1028287063032585e-07
-1.47604286425466854e-09
2.10973820778000241e-07
-1.8656022758302827e-09
2.1164895753356418e-07
-2.17881850851325112e-09
2.1219954849599148e-07
-2.38001530085106252e-09
2.12556938811298085e-07
-2.44555215451136154e-09
2.12683769359324303e-07
-2.35520152687998297e-09
2.12566830090713727e-07
-2.1315939307649601e-09
2.12243639964400789e-07
-1.83752902478220589e-09
2.11823864227024802e-07
-1.56610694304798033e-09
-1.44514633984411735e-09
2.30574367308371971e-07
5.93087270153453527e-09
2.31553321209935589e-07
5.43201663815619534e-09
2.32491177344860882e-07
4.61928284693568199e-09
2.33304907216065284e-07
3.49794359035490896e-09
2.33926622150803237e-07
2.21994412300096229e-09
2.34294264471016915e-07
1.02929466183496923e-09
2.34356407982201146e-07
2.18303871787620677e-10
2.34134380724050354e-07
-1.63856258337659716e-10
2.33704686218316641e-07
-2.416398923727792e-10
2.33184907259874142e-07
-1.49460612685607408e-11
2.3270405254792512e-07
6.04113169634862576e-10
2.32180579039930365e-07
1.58027262662664444e-09
2.31594574168989102e-07
2.71078760081999568e-09
2.31000739851810529e-07
3.78550602621692585e-09
2.30448157682665609e-07
4.62874640938183769e-09
2.29983019540732934e-07
5.06129720297225704e-09
2.29657216089544345e-07
4.93264321761270165e-09
2.29495977821399906e-07
4.17809973137846021e-09
2.29480538910471672e-07
2.85132487418173219e-09
2.2942169123144608e-07
1.17466923581238777e-09
2.28941397816717449e-07
-2.72633129649165305e-10
2.28132357179283515e-07
-1.39268988937482827e-09
2.27106340395200412e-07
-2.21428921802590664e-09
2.25928597292802804e-07
-2.73087215311302223e-09
2.2471923351463333e-07
-2.96189558974777638e-09
2.23643568379001116e-07
-2.95214401069475931e-09
2.22655244507934599e-07
-2.76691375925862212e-09
2.21757713536691892e-07
-2.51780178203750529e-09
2.20877859461722496e-07
-2.27751622065407148e-09
2.19968736037105705e-07
-2.04438485905886374e-09
2.19044515667689736e-07
-1.84249677341658296e-09
2.18269187121490489e-07
-1.66423050707874151e-09
2.18127685955026314e-07
-1.38022871509229274e-09
2.18343163822210853e-07
-1.22487545423948801e-09
2.18712969794737505e-07
-1.1754013020403877e-09
2.19093085252083919e-07
-9.07670383429033665e-10
2.19118679476210147e-07
-3.71292613270466884e-11
2.19532445189450787e-07
4.42524159107066036e-10
2.20034410163564631e-07
1.16277300352692446e-09
2.20643847497584344e-07
1.93368611125836092e-09
2.21325850114025873e-07
2.72733027789258031e-09
2.22032782137713095e-07
3.4808004680231761e-09
2.22727288446113108e-07
4.08762951971218396e-09
2.23352276278324302e-07
4.45331129664781603e-09
2.23818005688903084e-07
4.52272812285221476e-09
2.24036582258968388e-07
4.3172104335277097e-09
2.24024667827777803e-07
3.90790757765413726e-09
2.2386883431138539e-07
3.45796417271021394e-09
2.23776884381380193e-07
3.06334638206916064e-09
2.23745404923599702e-07
2.57473982758746696e-09
2.23663866254510849e-07
1.83403243099103537e-09
2.23555954917475634e-07
9.37726267212008794e-10
2.23374286474495764e-07
2.30748869407003148e-10
2.22885727804714722e-07
-3.5500634900151165e-10
2.22242708126145109e-07
-9.39869493310198538e-10
2.21514470047973582e-07
-1.42372544446608085e-09
2.20776751258310813e-07
-1.74003814069765086e-09
2.20154317892487924e-07
-1.83996004724714389e-09
2.19818618226643685e-07
-1.68975552864190934e-09
2.19728572609134457e-07
-1.36133638080774329e-09
2.19839143053338753e-07
-9.83577379639224702e-10
2.20469002411327267e-07
-8.79549506920751014e-10
2.21491334451642125e-07
-1.02966849390893434e-09
2.22087033960650091e-07
-1.41252696318825867e-09
2.22644735104652864e-07
-1.68534893232330567e-09
2.22954164976241774e-07
-1.78548100261482651e-09
2.22978158008222484e-07
-1.88960202247502869e-09
2.22787862519087729e-07
-1.98852833018467941e-09
2.22416937108734052e-07
-2.00909369484699408e-09
2.21901917007548083e-07
-1.93053491218987765e-09
2.21326282853953044e-07
-1.77956948247597124e-09
2.20794576927694819e-07
-1.59988936725048083e-09
2.20396118976344373e-07
-1.43907179789125154e-09
2.20173601873333034e-07
-1.34358993732130861e-09
-1.33056839380294958e-09
2.32071394239617429e-07
4.7173284246415663e-09
2.33266862456102065e-07
4.22774394006190237e-09
2.34362999840818785e-07
3.5100872421838647e-09
2.35236588489170201e-07
2.60509145901425014e-09
2.35788669603821371e-07
1.63950547129119641e-09
2.35981085574773971e-07
7.95500651533995066e-10
2.35878268319962787e-07
2.62177773385062288e-10
2.35567057468564124e-07
6.69898504865826333e-11
2.35078270314190972e-07
1.41249823129145213e-10
2.34419948108780975e-07
5.04274713763918544e-10
2.33731289829228533e-07
1.1137611357757162e-09
2.33188197741613751e-07
1.89946008271856374e-09
2.32905865244483932e-07
2.72181286446106989e-09
2.32937595262449193e-07
3.43557478137385079e-09
2.33301643018173021e-07
3.89998051263218425e-09
2.33951657522944512e-07
3.98816704888403511e-09
2.34806123560813303e-07