/*--------------------------------*- C++ -*----------------------------------*\
  =========                 |
  \\      /  F ield         | OpenFOAM: The Open Source CFD Toolbox
   \\    /   O peration     | Website:  https://openfoam.org
    \\  /    A nd           | Version:  8
     \\/     M anipulation  |
\*---------------------------------------------------------------------------*/
FoamFile
{
    version     2.0;
    format      ascii;
    class       volScalarField;
    location    "0.1";
    object      rho;
}
// * * * * * * * * * * * * * * * * * * * * * * * * * * * * * * * * * * * * * //

dimensions      [1 -3 0 0 0 0 0];

internalField   nonuniform List<scalar> 
1800
(
0.853174254349606365
0.85317397105882864
0.853173823852937274
0.853173800893227474
0.853173774078165748
0.853173680546363666
0.85317335721955212
0.853171907963452547
0.853165631010005199
0.853142070665842911
0.853066822519682355
0.852863676875300736
0.852402909167506051
0.851529454848110379
0.850151842161629423
0.853174007027373671
0.853173911887366354
0.853173819884479268
0.8531737829596302
0.853173755889814589
0.853173700956026404
0.853173582407573683
0.853173210264976833
0.853171789808783165
0.853166677673032559
0.853150456254031742
0.853105700313074422
0.852999114700249361
0.852781744297878341
0.852406070872988475
0.853173997223264813
0.85317392593273389
0.853173835657639157
0.85317378357738749
0.853173753821768854
0.853173711780354949
0.853173642157603718
0.853173500783559691
0.853173078352771452
0.853171672621811261
0.853167303894934337
0.853155198994367647
0.853125806762940697
0.853064098676235116
0.852953743495829531
0.853173894592126447
0.853173855993071162
0.85317380082510641
0.853173761376632145
0.853173733801433909
0.853173698031494454
0.853173645251911861
0.853173562509542016
0.853173377086319018
0.853172845564402094
0.853171304905392391
0.853167189592617281
0.853157378658664034
0.853136864206656353
0.85309973936214889
0.853173883839099978
0.853173859936126044
0.853173813080009724
0.853173768352738837
0.853173733968846437
0.853173698252888579
0.853173650932608774
0.853173582293438093
0.85317345189663496
0.853173130188243367
0.853172285034623057
0.853170168011483154
0.853165294849714706
0.853155111350186957
0.85313586972637423
0.85317383529351587
0.853173815265985569
0.853173779706650426
0.853173745200344835
0.853173716239245428
0.853173684523672038
0.853173641215583256
0.853173575328309286
0.853173448422515079
0.853173144391191518
0.853172375536081273
0.853170506681636631
0.853166259291615048
0.853157272105294684
0.85313966098712235
0.853173827968987109
0.853173816389075412
0.853173788479248518
0.853173753927044864
0.853173720708931382
0.853173686341091475
0.853173642498787022
0.853173574207513608
0.853173436872117996
0.853173101904746378
0.853172250708213453
0.853170175258228691
0.85316543182724236
0.853155299309681259
0.853135669294487697
0.85317380496712425
0.853173792004132903
0.853173765724404842
0.853173735392549037
0.853173706360788264
0.853173675469313775
0.853173634852234075
0.853173569404385934
0.853173435357764798
0.853173107871880387
0.853172278056445355
0.853170261237988892
0.853165668105247521
0.853155921594411337
0.853137875496809972
0.853173803445033241
0.85317379515798919
0.853173774084761916
0.853173744956793323
0.853173713691727564
0.853173680424392678
0.853173639004056517
0.853173574829538373
0.853173445746605474
0.853173133718260979
0.853172345852144742
0.853170429613340775
0.853166056980467435
0.853156999952413453
0.853140154592584299
0.853173795277843094
0.853173784955782666
0.853173761988646806
0.85317373309121658
0.85317370383380986
0.853173672989511189
0.85317363323291473
0.853173568847696018
0.85317343532382639
0.853173108067805996
0.853172278537374207
0.853170262794770262
0.853165682417929117
0.853156631478766525
0.853139713678451428
0.853173794853811063
0.85317378456237003
0.853173761660111385
0.85317373287263365
0.853173703778504211
0.853173672878758449
0.853173633241046891
0.853173569373620322
0.853173437103210697
0.853173112350892882
0.853172287313646582
0.853170276574641284
0.85316575845018916
0.853157036529123225
0.853140922118280631
0.853173803294267841
0.853173794999092849
0.853173773885645637
0.853173744713080384
0.853173713445669168
0.853173680150397296
0.853173638775924781
0.853173574306723026
0.853173443977429224
0.853173127124237207
0.85317232357467121
0.853170366346967746
0.85316603119016754
0.853157365018721858
0.853140910709881961
0.853173804886458886
0.853173791944914273
0.853173765691059849
0.853173735375449827
0.853173706347558403
0.853173675395669906
0.853173634488726407
0.85317356811153211
0.853173429582876452
0.853173085194750325
0.853172200828304694
0.853170037138595183
0.853165265355423696
0.853155513379757702
0.853136611610563977
0.853173827891553049
0.853173816322213896
0.853173788426676571
0.853173753878978758
0.853173720644547773
0.853173686194357184
0.853173642016194722
0.853173572387661894
0.853173429567735231
0.853173074686702892
0.853172159328375757
0.853169905878810919
0.853164786182618595
0.853153926488960046
0.853132102804441406
0.853173835203119069
0.853173815179748662
0.853173779626141493
0.853173745120659688
0.853173716152763162
0.85317368443065944
0.853173641147977557
0.853173575358547542
0.853173448512056232
0.853173144508686643
0.853172378464018721
0.853170536139207569
0.853166412478768232
0.853157730170801765
0.853140358835253743
0.853173883740847239
0.8531738598378803
0.853173812979136414
0.853173768244693043
0.853173733857308547
0.853173698200278108
0.853173651295222379
0.853173584719920108
0.853173463163466206
0.853173175593938349
0.853172448963911312
0.85317069407669055
0.853166758638434941
0.853158530636549561
0.853142438085851107
0.853173894479366979
0.853173855878989196
0.853173800705692931
0.853173761249812923
0.853173733696567793
0.853173698182026707
0.853173646967972266
0.853173571995524682
0.853173420074367916
0.853173016222743663
0.853171905744996129
0.853169061607568002
0.853162485149623562
0.853148879925440973
0.853123871515966248
0.853173997100696413
0.853173925805209787
0.85317383551888426
0.853173783428288313
0.853173753727222595
0.853173712213506019
0.853173645769295219
0.853173520128521434
0.853173165032412584
0.853172011646776918
0.853168471775298309
0.85315874030847072
0.853135193120900248
0.853085627156768389
0.852996177197683614
0.853174006895813686
0.853173911750216396
0.853173819732386152
0.853173782781177059
0.853173755638955589
0.853173700319259432
0.85317357953843187
0.853173196328735894
0.853171730246709781
0.853166456830777076
0.853149717624373083
0.853103402207626149
0.852992429818375641
0.852763908250836478
0.852365329031077645
0.853174254211091609
0.853173970912008306
0.853173823690342448
0.853173800723636244
0.853173774082679137
0.853173682093683161
0.853173368624922657
0.853171972731549877
0.853165950387579808
0.853143433632135628
0.853071681294995443
0.852877804886555513
0.852435625038144518
0.851587138850315117
0.85023150318373053
0.848715157387090358
0.847076956418143401
0.84541198650288929
0.843895685716150812
0.842625849129166715
0.841583999228172286
0.840620722365580608
0.839218032230741096
0.836902452813936382
0.833940669541520241
0.830951686784647814
0.828605792860583001
0.826877970982145327
0.825079208634519667
0.823197398240167466
0.821480734418427394
0.820130952317286721
0.81919177382866315
0.81858782214482817
0.818206865716682441
0.817977369987829994
0.817821072928027637
0.817685000670029805
0.817566308396462826
0.817465197945661082
0.817377941769402483
0.817288771185749385
0.817181805752604684
0.817072349719607516
0.816976610861089414
0.816930391484566032
0.816891624608405365
0.816854069287692441
0.81682261036692827
0.816796819464377322
0.816775634672905926
0.816759688608399759
0.816750861809508288
0.816744851549238815
0.816740456605458909
0.816738842505787987
0.816737953118294779
0.816737251201518855
0.816736702119807534
0.816736312403362086
0.816736032775393972
0.816735832332017631
0.816735691874833192
0.816735594850699576
0.816735523664814722
0.816735468470783377
0.816735436437151852
0.81673542326009918
0.816735414337439014
0.816735406600324509
0.816735400364012154
0.816735397139251695
0.816735396310862893
0.816735392503330715
0.816735380825398649
0.816735362043021662
0.816735341125624625
0.816735316134408529
0.816735284790966465
0.816735270492960685
0.816735269107572992
0.81673526625746995
0.816735262022618924
0.816735258677713016
0.81673525682412873
0.816735256428495426
0.816735256895157913
0.816735257156283034
0.816735256412656652
0.816735254098715613
0.85198603281451224
0.851461590583410866
0.850878334692344529
0.850303587617206147
0.849788506033413493
0.849328732166612088
0.848868794455896913
0.848394340779464184
0.847743177506246615
0.846619812844838115
0.844692380687172673
0.842520883143562882
0.840254367366944144
0.837765035151909698
0.835083757664915827
0.832359101002744795
0.829800462723618071
0.827580309616597454
0.825777805188316005
0.824383796703648586
0.82330799515891151
0.822456264112518043
0.821678365236423236
0.820892178834499386
0.820169847868627899
0.819663471630940887
0.819370202204750986
0.819111021174196985
0.818833974340147708
0.81845617605663723
0.817970162962656677
0.817655467850161188
0.817513794049117726
0.817387640453201558
0.817197721863295201
0.817070519063640588
0.81700099252396019
0.816938258200230694
0.816884223394623299
0.816803196889766547
0.816778347118804038
0.816764180405071372
0.816755666067207287
0.816749813353096599
0.816745371934462283
0.816742802196321449
0.816740894692727482
0.816739264689710698
0.816737880632323554
0.816736962557281343
0.816736443973049564
0.816736126127292406
0.816735911255492497
0.816735773340824811
0.816735680162150035
0.816735611515806204
0.816735529818177097
0.816735465111313119
0.816735437471687642
0.81673541587554388
0.816735402092698348
0.816735380964619839
0.816735360486164574
0.816735353229914085
0.816735317322006216
0.816735283177501992
0.8167352730933779
0.816735269328993208
0.816735264235965763
0.816735260220870729
0.816735258286755861
0.816735257531552961
0.816735256741903393
0.816735254865479154
0.816735250779048294
0.852827436719776566
0.852664317213574496
0.852475012274171218
0.852277317939691081
0.852085077685989623
0.85189560761638794
0.85169199909813198
0.851460505669313195
0.85113147879894524
0.850544427891575361
0.849634667132857513
0.84847877169547592
0.846996481439261317
0.845130950097802591
0.84285983343142612
0.840256184523195948
0.837517203019076839
0.834920826958202245
0.832693947020623493
0.830954639233828063
0.829634387701835285
0.828529256545473269
0.827334291372927466
0.825893496663603233
0.824198244202480779
0.822721275167220822
0.821847900090685091
0.821197746043098142
0.820624396247359611
0.820096306469688563
0.819359755824907943
0.818683718176462016
0.818347488145201751
0.81799917547482115
0.817668954141558491
0.817412606490910854
0.817235112790956064
0.81714064973813505
0.81703720741367547
0.816943358597573277
0.816873319853416491
0.816825502003842518
0.816796264464603849
0.816775782175407472
0.816763563480719212
0.816757546692772896
0.816752834579537512
0.816748681262519205
0.816744713590961346
0.816741296896169477
0.816738878224146148
0.816737637224374646
0.816737006173408719
0.816736613081261997
0.816736308982204506
0.816736071620880022
0.816735883606503843
0.816735684468717471
0.816735550634464014
0.816735495628241881
0.816735431050747418
0.816735371378485508
0.81673531900001739
0.81673529790579924
0.816735293099942972
0.816735288017182315
0.816735278689134536
0.816735270701970384
0.816735265793728571
0.816735262302750287
0.816735259425913518
0.816735256870483428
0.816735254064856031
0.816735249666996621
0.816735242134989825
0.853056538137207609
0.85299845264717411
0.852925359613691092
0.852837052226077308
0.85273024341560999
0.85259696167860255
0.852428033026395138
0.852218906824698919
0.851921647469743082
0.851460891178965729
0.850847043807490655
0.850048773202208396
0.849035291452333252
0.84776931814263834
0.846219304342898493
0.844343383280351745
0.842213288241071445
0.839984407499417718
0.837874859430047025
0.836049516570482543
0.834620848646872249
0.833148198825808373
0.831399427514135314
0.829338027687675283
0.826938130159359686
0.824941932581295445
0.8234494581918822
0.822392935599726149
0.821656940979449524
0.820933516513002282
0.820169022666592751
0.81901518517494043
0.818461527203043326
0.818127365529511041
0.817870781311918593
0.817671096163206323
0.817482524709513436
0.817281693693945543
0.817112206733573321
0.816998093943153259
0.816917355878400087
0.816856321077677694
0.816807463817418089
0.816788194110084631
0.816777616582509691
0.816769381407303152
0.816762429113526367
0.816756441878305206
0.81675083825482464
0.816745225357619176
0.816740963763210592
0.816738580136540659
0.816737517190443962
0.816737021088991377
0.816736639931433528
0.816736344050162266
0.816736060064864433
0.816735829944122971
0.816735656352633788
0.816735545038806521
0.816735502326003449
0.816735462291733327
0.816735402302124824
0.816735342198604886
0.816735316487579355
0.816735304709338639
0.816735292553577907
0.816735279885522303
0.81673527133526036
0.816735265990877868
0.816735261704798488
0.816735257507053447
0.816735253053624821
0.816735247508725171
0.816735240729505541
0.853112084404897053
0.853076782810564538
0.853025531952362082
0.85295176819577978
0.852845533342075801
0.852692849291195487
0.85247719191001281
0.852184964012054125
0.851811458697593116
0.851330567387723169
0.850715232736276472
0.849946197281419513
0.849012085139484673
0.847912908359050199
0.84665111469583676
0.845172614766117269
0.84351539756667171
0.84177894538331155
0.840053284508269549
0.838569078384183042
0.83716059175965718
0.835383396279899215
0.833305187213228549
0.830641756994416447
0.828196430468523759
0.826095722529052612
0.82427382409572203
0.823031212269736634
0.822363700950365262
0.821590533337537399
0.820371416561068822
0.819311508566882618
0.81887162041728645
0.81847515951021943
0.818060877422072008
0.817821771792098917
0.81761208868538493
0.817368018835085919
0.817159070768035067
0.817024515026417153
0.8169199740574693
0.816841607793152069
0.816809544312749103
0.816795155390915739
0.816783674572944207
0.81677396143654224
0.816765709002977847
0.816758732882333138
0.816752377642670391
0.816745951220565369
0.816741581298048303
0.816738891311691195
0.816737683534527914
0.816737147327792345
0.816736650005929321
0.816736341163688429
0.816736074306522286
0.816735826578026014
0.816735665549807033
0.816735547355148084
0.816735470676836051
0.81673542278604927
0.816735390953146068
0.816735359905012448
0.816735337775531867
0.816735320779894192
0.816735303834097648
0.81673528690428121
0.816735275492563861
0.816735267943779597
0.816735262124985484
0.816735256776196628
0.816735251279707142
0.816735245150648659
0.816735238768332428
0.853116698051760491
0.853080998283494152
0.853026074295366254
0.852943289474493382
0.852821039490513133
0.852644850847108948
0.852398790345925694
0.852069832047551934
0.851658567235188957
0.851156207461703618
0.850539426079854111
0.849793943580258615
0.848914391321210382
0.847908749776793758
0.846784011762213851
0.845487606230590383
0.84404257808492511
0.842478761038388591
0.840718322128749196
0.838921408411113623
0.837143917538830995
0.834941791152803647
0.832285310700461634
0.829629647897814126
0.827068796135124851
0.825094633513596576
0.823821441464437476
0.823080396651501234
0.822048488923171727
0.820669836670541275
0.820014537528987231
0.819187227540646545
0.818744701200782243
0.818349009227593571
0.818033984394321734
0.817723729310384617
0.817514451184292112
0.817328054196071574
0.817153292909853279
0.817006144869239948
0.816891810368949423
0.816831556805295067
0.816811973296028837
0.816797435770585167
0.816785537094282921
0.816775167720729223
0.816766439168930325
0.816758990359133907
0.816752041287323594
0.816745469755840947
0.816741175012378307
0.816738652808203236
0.816737475971643256
0.816736952517890358
0.816736601007498453
0.816736270793094854
0.816735941961450718
0.816735760179223447
0.816735654367592212
0.816735542329952047
0.816735461902540094
0.816735408987544598
0.816735381676539141
0.816735359424532126
0.816735341202204479
0.816735321156846439
0.816735302279785969
0.81673528763192027
0.816735277244315716
0.816735269414047949
0.816735262739823886
0.816735256358888551
0.816735249844757205
0.81673524284989607
0.816735235014822814
0.853108416867891739
0.853067006792488147
0.853003029076273456
0.852906783775767341
0.852766008694858746
0.852566135835244765
0.85229157789678911
0.851929019665709109
0.851475006655522448
0.85094022019090243
0.850304355405165246
0.849552795583004006
0.848679634282993867
0.84768624125140013
0.846574062121688953
0.845286348128002185
0.843797497191990375
0.842138300939599294
0.840257178142263639
0.838165677979455181
0.835932023486765319
0.833829584783257194
0.831526046411209974
0.828418005724927964
0.826009256844357331
0.824688346359933488
0.823850904909083859
0.822795808927711425
0.821502201644474184
0.82073526411048825
0.819924507117708368
0.819212409090143812
0.818700784388055935
0.818280359906372712
0.817929550669953875
0.817656354825540332
0.817425465733947476
0.817232729708408101
0.817072199197319216
0.816939906233215996
0.816852208282554559
0.816825827053913489
0.816808245387499077
0.81679522545425387
0.816784072169764785
0.816774392839885621
0.81676635177023027
0.816759199887420961
0.81675179390491337
0.816745075824945266
0.816740794668245229
0.81673835324436217
0.816737404251390964
0.816736951478240325
0.816736502559501476
0.816736132514134794
0.816735925599635038
0.816735781743593625
0.816735624385887427
0.816735488060789994
0.816735435327314518
0.816735401716710441
0.816735375343718983
0.816735354913711853
0.816735335708722587
0.816735315318845023
0.816735298730568826
0.816735286651127268
0.816735277274592608
0.816735269755395676
0.816735263142508994
0.81673525645231515
0.816735249146647413
0.816735240828044162
0.816735230683994895
0.853111160945560831
0.853071341519810677
0.853011338414038978
0.852921468296430785
0.85279044944239113
0.852604439203420106
0.85234772715632956
0.852004782480546341
0.851565041655598209
0.851034470704689072
0.850412365267174786
0.849675313312628799
0.848811199798160665
0.847814656580069492
0.84668264551691208
0.845360503464090196
0.843788541787055202
0.842035704020047127
0.840075812997631344
0.837857807990339376
0.835486557131619567
0.833040553622422464
0.83005409787991713
0.82802031208503124
0.826790292426234696
0.825702555345713463
0.824384584862365766
0.822940063980918346
0.821489165205511518
0.820620102827729681
0.819697692747946682
0.819096061630260608
0.818626122497806419
0.818244423391082054
0.817843083199771947
0.817568355330107521
0.817388076261319041
0.817226146471602632
0.817056115843008635
0.816915980901349204
0.816855486417631171
0.816831702007708826
0.816813336158452308
0.816798664820763354
0.816786360754132135
0.816776204193504496
0.816768032136846012
0.816760493858519343
0.8167515545748536
0.816743956491975287
0.816740429896689268
0.816739250272956352
0.816738385454848004
0.816737492439510993
0.81673653421646375
0.816736199241356098
0.816735996598210501
0.816735828383759133
0.816735597739864705
0.816735477021646505
0.816735435118296049
0.816735403364728607
0.816735376304568272
0.816735355156028131
0.816735331847479817
0.816735311447977286
0.816735297337017108
0.816735286685888795
0.81673527785828437
0.816735270014329773
0.816735263162119862
0.816735256474866667
0.816735249464007107
0.816735241126579803
0.816735230014283831
0.853114850922177204
0.853074665838237101
0.853016214947871831
0.85292864365022214
0.852800355008899058
0.852617240085786432
0.852362846989558998
0.852019401182652514
0.851570666078788951
0.851009299476105707
0.850348880424972142
0.849569420750141302
0.848645413814103744
0.847561028977377395
0.846306085326253954
0.844810553015297838
0.842952566913612644
0.840847104369134679
0.838656934047825375
0.836497451523841584
0.834196578054826943
0.831685468106213355
0.829212707306532182
0.828087473236636562
0.827162840288309886
0.826380501046756977
0.82532128484148648
0.823783597118375677
0.822356288116129486
0.821193346369378463
0.820207343890000828
0.819383330153598877
0.818749922796075391
0.818295145101676336
0.817924932215126077
0.817605986811862584
0.817354778292787465
0.817164406854219427
0.817007988145017405
0.816912069861509993
0.816874419773086613
0.816845374519109657
0.816823466216412775
0.816806261756956919
0.816791947564829646
0.816780337644596677
0.816770811864830804
0.816761661224951308
0.816750728043185936
0.816743431333325609
0.816740975763121435
0.816739719862692892
0.816738727571112655
0.816737692838951146
0.816736632007563967
0.816736219771704075
0.816736047981452384
0.816735788896632342
0.816735581457828763
0.816735501639629935
0.816735456937663362
0.816735421995715472
0.81673539068090395
0.816735356170525506
0.816735326001875928
0.816735307993948334
0.816735297373081592
0.816735288162219963
0.81673527934786827
0.816735271685283482
0.816735264601188948
0.81673525781905576
0.816735251380060645
0.816735244668804428
0.816735236764561834
0.853114151259481535
0.853071922298994978
0.853010080907265045
0.852921003128809252
0.852790986502047099
0.852605940071935131
0.852349291117578733
0.852003273104106396
0.851551484165269046
0.850983946070729802
0.850308234366282778
0.84954563054578891
0.84866863169083151
0.847666785737698714
0.846539199737356252
0.845237547086354457
0.843693166663587624
0.841902539651824933
0.839409944243900252
0.836128766517029942
0.833246952943571095
0.831033095913357167
0.830050973396009195
0.829053116094651044
0.827756114285878697
0.826261963856575798
0.824602270805855131
0.823123522433740318
0.821944898699115689
0.82100829047206314
0.820274325979591046
0.819678141487186207
0.819145972577429715
0.818630666486110936
0.818071434894064642
0.817636276671301454
0.817347836876186173
0.817155404567559973
0.817006323012096081
0.816939314738534983
0.816894133688205182
0.816860415851368038
0.816832825371822668
0.816810728335290004
0.816793596110332309
0.816780498426181611
0.816769532014106292
0.816759247493045071
0.816748495052619372
0.816742891473491217
0.816741184412445365
0.816739982157853706
0.816738944880882944
0.816737845349667202
0.816736791640801374
0.816736240505554822
0.816735899643118768
0.81673574995685716
0.816735670161082172
0.816735599920116018
0.816735533231979338
0.816735465919941506
0.816735394546653559
0.816735348346006473
0.816735328802604688
0.816735313896812753
0.816735301547370507
0.816735290722107155
0.816735279965917438
0.8167352707950708
0.816735263513715393
0.816735257283644045
0.816735251643965543
0.816735246741568943
0.816735243509615461
0.853118151993424778
0.853079346350721912
0.853014457094060763
0.852912357800581389
0.85277146445970553
0.852587146484115488
0.852326485877788365
0.851974747460051751
0.851517418428679229
0.850944701722592178
0.85025785418058808
0.849484282236903976
0.848651063723813603
0.847750366231730501
0.846802654142078559
0.845762645401481494
0.844396240818180766
0.842274904154199255
0.838887898160004419
0.836561631856390209
0.835086642836126436
0.83374140632948035
0.832076125407522738
0.83008584031309085
0.827973332493967762
0.825975799569330871
0.824242901296407093
0.822921251212717642
0.821953974330203785
0.821142511664135211
0.820408093560252016
0.819737241017871821
0.819135567280010912
0.81858767692615142
0.818036355924797398
0.817615558712001311
0.81733751775351593
0.817153762647997217
0.81701404673124689
0.816945430265060168
0.816897300770057844
0.81686124194032228
0.816832648154592778
0.816809666909994125
0.816791882277271064
0.816778674223423207
0.816767412703585438
0.816757100922923085
0.816747449106036361
0.816743388963745987
0.816741909013940171
0.816740718933396281
0.816739466106610856
0.816737900979761067
0.816736813285392826
0.816736468084643175
0.816736222401162504
0.816736032652013
0.816735835874087712
0.816735670713855444
0.816735548379526222
0.816735445032436558
0.816735384230950046
0.816735357791331662
0.816735337093245306
0.816735319751438205
0.816735304803116069
0.816735291138053876
0.816735279904920897
0.81673527138487656
0.816735264791850102
0.816735258892242189
0.816735253381355664
0.816735248845093076
0.816735246560476247
0.85311914904253705
0.853085688452563939
0.853026264920542454
0.852926700223286871
0.852768844325853537
0.85257857686971239
0.852314540128462306
0.85195173734075047
0.851470964668559316
0.850858648861072431
0.850111118407082089
0.849242121054055943
0.848299235144015285
0.847329143418639741
0.846333865947521358
0.845209940786174396
0.84359429065050584
0.841083408115577025
0.838954228774238975
0.837753670118879468
0.836578275311771424
0.834871040581733115
0.832761758542501451
0.830535071656511303
0.828408213060881859
0.826447241358315488
0.824663404542981371
0.823132830301168794
0.821858253217316981
0.820880262722953447
0.820109241026034663
0.819488672812147545
0.818990112499388245
0.818516854827158857
0.817976366982222425
0.817556898956876332
0.817285446382041481
0.81711508366184582
0.816997126762825321
0.816931062183280043
0.816892237550456812
0.816861908996309838
0.8168370604723596
0.81681607756473773
0.816798741466196132
0.8167849683707602
0.816773403106334062
0.816762210280847945
0.816750558122578574
0.816745782290760225
0.816743679566404923
0.816741879568852802
0.816740025219768184
0.816738445572918748
0.816737748369668393
0.816737151579954634
0.816736620732461671
0.816736104770000915
0.816735771942427302
0.816735591320824739
0.816735465287145468
0.816735413719104519
0.816735382199946347
0.81673535741235892
0.816735336712823501
0.816735318582203718
0.816735302475917524
0.816735289351668947
0.816735279549737903
0.816735271533193141
0.816735264489330981
0.816735258376871442
0.816735252620016117
0.816735247057750691
0.816735241992507799
0.853112592244325896
0.853079146116757725
0.853020423766368996
0.852915337051992517
0.852749772543802131
0.852506122018832135
0.852237489984056795
0.851872423544798973
0.851398612730668525
0.850808122643924913
0.850102453473794872
0.849296798871276848
0.84843643257953083
0.847563975504314171
0.846672024337584483
0.845632005205326998
0.844061580292955638
0.841524034515283681
0.839299056917298669
0.838142361048682338
0.836874631979096062
0.834947932114508573
0.832761771031077735
0.830524142077095018
0.828327311747302675
0.82624845080276188
0.824375709601210316
0.822757277965795453
0.82136250050087245
0.820185726830419348
0.819404659505548971
0.818937229594873695
0.818609182870883023
0.818221927907096136
0.817813844623503705
0.817499615183456485
0.817288813534976732
0.817144767311259734
0.817034886157391282
0.816955442702646306
0.816916073220883554
0.816882608554778233
0.81685394495098218
0.816828929050507191
0.816807795510967827
0.816790833455213083
0.816777571419111892
0.81676563799067925
0.816753213051677585
0.816745135947355427
0.816742752393319837
0.816741079977189921
0.816739536948165923
0.816738544898773289
0.816737815020895708
0.816737155653230129
0.816736540734365968
0.816735964634796363
0.816735638494612726
0.816735498367149648
0.816735448874270409
0.816735412045341835
0.816735382025734702
0.816735356724092254
0.816735334046390649
0.81673531327264981
0.816735298020420331
0.81673528671358897
0.816735277956726846
0.816735270484271525
0.816735264057545041
0.816735258340249071
0.816735252515798704
0.816735246536359316
0.816735240149654484
0.853104276831118225
0.853067037381078808
0.853003330810070626
0.852887233377660592
0.852673280660812938
0.852407757825128787
0.852060653266521473
0.851614238990723638
0.851054302447647681
0.850379793688205377
0.849606000086117086
0.848764769170418654
0.847909416506738123
0.84705885086706656
0.84617299104541277
0.845064813524075364
0.843456465646125308
0.841135918338168365
0.839785361461907631
0.838710050142928765
0.837478194815573618
0.835579692911753713
0.833213942115406225
0.830732357608546468
0.828378572631320642
0.826299923127923108
0.824549630914469867
0.823103253020493697
0.821877179181547124
0.820792640541170182
0.819946130738447798
0.819272694510914112
0.818704239083579366
0.818201614244950415
0.817773720707947627
0.817459272946673976
0.817255251028867646
0.817117490322927242
0.817010163144730295
0.81693936981324089
0.816903022335724871
0.816872383764676857
0.816845872790511018
0.816822758628134804
0.816803094905483307
0.816787035322657284
0.816774446803990917
0.816763265516988968
0.81675144481733708
0.816743863413150195
0.816741670549458565
0.816740203686496802
0.816738905332982768
0.816738024190178269
0.816737401312430222
0.81673688262110955
0.816736404365886015
0.816735884884969843
0.816735595073741272
0.816735511099683009
0.816735455686160683
0.816735413137914978
0.816735377040769484
0.816735348004602346
0.816735324082334513
0.816735307723979065
0.816735296076566031
0.816735286556940498
0.81673527812391955
0.816735270369399524
0.816735263591500726
0.816735257735929032
0.816735251931326345
0.816735245471115867
0.816735237134958436
0.85311805027755383
0.853088807270744875
0.853042529527052618
0.852959055926295617
0.852804652186253453
0.852619533268931806
0.852318274831515676
0.851970817192892138
0.851523749462872126
0.850972863460424667
0.850328138266812972
0.849623087616615869
0.848855067328819768
0.847999111709850539
0.847066222314165063
0.845907067408119162
0.844301204877973777
0.842071026204956441
0.839037764239989881
0.837713882303599333
0.836631540531717066
0.834924964704006345
0.832608958928555354
0.830068035249406866
0.827732797550435606
0.825817508084729757
0.824325923121441817
0.82311168481477115
0.821986048815194548
0.820949681001834075
0.820073907836314175
0.819343079863692036
0.818726162145956282
0.818195437029305084
0.817751810416003977
0.817426938546818915
0.81721805811467485
0.817079638426669863
0.816971385394109073
0.816911371093361316
0.816878556325270289
0.816852250594580664
0.816829891035646405
0.81681046473010166
0.816794050659351401
0.816781002459911143
0.816770624080071617
0.816760693027183016
0.816749778496158929
0.816743160176694571
0.8167411860466538
0.816739842086159906
0.816738740826347231