/*--------------------------------*- C++ -*----------------------------------*\
  =========                 |
  \\      /  F ield         | OpenFOAM: The Open Source CFD Toolbox
   \\    /   O peration     | Website:  https://openfoam.org
    \\  /    A nd           | Version:  8
     \\/     M anipulation  |
\*---------------------------------------------------------------------------*/
FoamFile
{
    version     2.0;
    format      ascii;
    class       volVectorField;
    location    "0.1";
    object      U;
}
// * * * * * * * * * * * * * * * * * * * * * * * * * * * * * * * * * * * * * //

dimensions      [0 1 -1 0 0 0 0];

internalField   nonuniform List<vector> 
1800
(
(0.956230686611042824 -1.14451551208387521e-11 0.00078770266150802971)
(0.950424799586432556 -1.14631565427138763e-11 0.00166515011638062541)
(0.925961909268219197 0 0.00201928432544229517)
(0.884914538068419576 0 0.00218100222771434524)
(0.84543858193816479 -1.15021200869156877e-11 0.00246367493449217104)
(0.812160835363389233 -1.1515322373630657e-11 0.00282940146845551922)
(0.781243380432479984 0 0.00316052561074199427)
(0.749818589967529925 0 0.0034246876292182535)
(0.718218580785845884 0 0.00365387021986911644)
(0.687751124102344402 0 0.00387365698320913786)
(0.658779975727650458 0 0.00405745582281330248)
(0.63078946274076142 0 0.00409268915858729005)
(0.603227893658252357 0 0.00374128861584391119)
(0.575925127979959428 -1.16315583991106298e-11 0.00265420939968818298)
(0.549011208169447373 -1.16603820580812339e-11 0.000565305485375678881)
(0.997863085458370658 3.43250814716994632e-11 0.041335193738479388)
(1.00760429167539223 3.43289437968032607e-11 0.0484057313542536616)
(1.01525410071832822 0 0.0459703948343983121)
(1.0132519553490793 0 0.0461298585250882118)
(1.00786142325343886 3.43285392302429989e-11 0.0469324806409310569)
(1.00352702770450852 5.7221142813363986e-11 0.0462936999509290445)
(0.999248738299564288 2.28930741646673601e-11 0.0446947861020770554)
(0.993075899627607672 0 0.0429646589486509176)
(0.984925904563075938 0 0.0413553192524342347)
(0.975698814718528928 0 0.039846864831964604)
(0.965789676060304747 0 0.0384937287557176808)
(0.95495151424148883 0 0.0374903881656804133)
(0.94292645181400836 0 0.0371225384296637317)
(0.92988369559884565 1.14788496010544245e-11 0.0376444908768562778)
(0.916443643981630918 1.14885304176224112e-11 0.0389845773894650985)
(0.999886925499874457 -2.28894437305443226e-11 0.00381350943245553934)
(1.00962025444188885 -2.28878311608007344e-11 0.00428507095081792199)
(1.02137650510474121 0 0.00450404609209014394)
(1.02734643863728548 0 0.00736437515195421076)
(1.02976964030547102 -2.28701345850709258e-11 0.010756856291861773)
(1.03295351613554143 -4.57312386748129136e-11 0.0130356023425802266)
(1.03707642289117397 -6.85880351125638902e-11 0.0145500935957873258)
(1.04035644657650073 0 0.0160154970884919777)
(1.04220833530025847 4.57172869079005046e-11 0.017600542186896953)
(1.04320053214310637 0 0.019195290556456409)
(1.04373911388688678 2.28564917495582515e-11 0.0207667964723054696)
(1.04370249735506238 2.28563445367396652e-11 0.0223153713129436611)
(1.04290075775747315 2.28570710908903293e-11 0.0236303081033164553)
(1.0414632037892062 2.28592177414252728e-11 0.0241040724078760357)
(1.03986106941961931 0 0.0227702814978051615)
(1.00000706521137106 -4.57922891789832092e-11 0.0178189384500300092)
(1.0054687135709004 -4.5793386572228013e-11 0.0288667942378166426)
(1.0133390837988443 0 0.0331009353221794686)
(1.01906641191627645 0 0.0350052106444138506)
(1.02309835889301759 -4.5757885984107521e-11 0.0365885877358296183)
(1.02793230272523717 -4.57460915058211344e-11 0.0374605293397550845)
(1.03391721046167029 4.57361475937469679e-11 0.037477944866662935)
(1.0397696734269799 0 0.0371373916177216296)
(1.0448578048279733 -4.571809922705963e-11 0.0368295641464141607)
(1.04954891297600073 0 0.0366331588452591603)
(1.05426679694833791 -2.28501358232127509e-11 0.0365738613220716879)
(1.0590445552263017 -6.85373227616396887e-11 0.0367396227619556162)
(1.06381286852341161 -6.85245856010318662e-11 0.0371820049724315635)
(1.06870325502982322 -2.28377480963646618e-11 0.0377960926527670035)
(1.07397146669107557 0 0.0382544856561024271)
(1.00003168285034705 5.77242727088633391e-19 0.00258040786360167352)
(1.00352617256124477 -2.116877696790808e-19 0.00320893285330292035)
(1.01011923359214006 0 0.00278962007527331843)
(1.01628009401291175 -4.57815510486625438e-11 0.00354227774405637937)
(1.02092517595249399 -5.12469195908735201e-21 0.00559468915813833741)
(1.02558047845326827 4.57586635809342717e-11 0.00770248967397892288)
(1.03110561649967902 0 0.00926596226128355467)
(1.0368997206154833 0 0.0105940789019670616)
(1.04237775391978071 0 0.0120409970699236792)
(1.0476940158995558 0 0.013625500186258438)
(1.05323791511209186 0 0.0152334188250231994)
(1.05915090319784144 4.56992917980135705e-11 0.0167633717767548505)
(1.06540706397305907 4.56887017274862387e-11 0.0180025930838135402)
(1.07202358173876711 0 0.0184485306084190386)
(1.0790101793139435 0 0.0173312558071359521)
(0.999995381393772531 4.58049111206659129e-11 0.00854185820173154059)
(1.00274403392252776 4.58129396658973421e-11 0.0159852702785469904)
(1.00766878207562138 0 0.0209283550404133593)
(1.01249574296396272 4.57936731291012173e-11 0.0237827463463745267)
(1.01658043691370481 4.57838890641440164e-11 0.0255778879461902205)
(1.02090289171236037 0 0.0266477235311392315)
(1.02609129359967444 0 0.0270239336472915433)
(1.03173452204475935 0 0.0269783901137338501)
(1.03729360048835817 0 0.0268301762795319365)
(1.04277681396017541 0 0.0266920027253339347)
(1.04848842625465832 4.57258590288362147e-11 0.0265485989787078852)
(1.05459552550218727 4.57155295991051418e-11 0.0263996431172719113)
(1.06108715072299797 4.57051075407647138e-11 0.0262496342414988322)
(1.06792737597197118 4.56951492582968647e-11 0.026046578603822524)
(1.07504927588124777 0 0.025713678278609594)
(1.00002704896835093 9.16177636642822774e-11 0.00157264008520395645)
(1.00175494320927139 9.16397917504655127e-11 0.00196240516535318987)
(1.00573919967172176 0 0.00132061590992829897)
(1.01056835174985316 0 0.000952338669660186625)
(1.01511160692971014 9.15863896387178951e-11 0.00149163441707269033)
(1.01959185960702747 9.15675187451959265e-11 0.00253405430702913778)
(1.02455609869017805 9.15491363105371231e-11 0.00354673924120668021)
(1.02993315051896617 9.15314440393096901e-11 0.00444876948783582121)
(1.03535709552396504 0 0.00539708420329610035)
(1.04075419657855761 -9.14952627939333666e-11 0.00644351434808663331)
(1.04632355454000359 -1.37214502373264513e-10 0.00749929110276397175)
(1.05220904246428493 -4.57285907171265265e-11 0.00844037203663004429)
(1.05837663663330384 -4.57191544861107309e-11 0.00910261293345187086)
(1.0646986382309136 -1.37131273964127472e-10 0.00919138652086302389)
(1.07098195183136458 -9.14020972667605691e-11 0.00827460990106299379)
(0.999996159886390457 -1.83245394424481617e-10 0.00406821482427929294)
(1.00176115031389479 -1.83298372298560134e-10 0.00820812899912732458)
(1.0053523970325644 0 0.0117659204802300996)
(1.00950947749937736 0 0.0143298694386312948)
(1.0134834544646627 -1.83209068959599315e-10 0.0160079952203960423)
(1.01755809938006569 -1.83176234140075274e-10 0.0170138919480426511)
(1.02219445461204295 -9.15714383127416511e-11 0.0174656410951315143)
(1.02734617625120772 -9.15548030621148244e-11 0.0175222877678376347)
(1.03267484797163789 0 0.0173854243810943714)
(1.0380331100810738 9.15203385444198793e-11 0.0171700223951967053)
(1.04353153052966818 9.15023337198160749e-11 0.0168904047088714905)
(1.049289893054143 0 0.0165477326749902884)
(1.05528275935265037 0 0.0161714001581480596)
(1.06139494974284232 9.14495239242224895e-11 0.0158139882321398396)
(1.06748068716979261 9.14305739619942397e-11 0.0155626935993340779)
(1.00002050780092921 9.16278554041385468e-11 0.000383451187011354629)
(1.00125301523428267 9.16590634296462749e-11 8.37336745332286904e-05)
(1.00426902702010823 0 -0.00094003421705346501)
(1.00836195570426135 0 -0.00196988324270138326)
(1.0126679861152843 9.16195610739296433e-11 -0.00245076495788929894)
(1.01704211963261293 9.16040690638603358e-11 -0.00241134849740969872)
(1.02176505806125362 0 -0.00213420583652020306)
(1.02689672673581134 0 -0.00176416440317862517)
(1.03221340956287988 0 -0.00130078020242668769)
(1.03756068769045906 0 -0.000748613768717885973)
(1.04299615505444088 0 -0.000170597123376127545)
(1.04862539459785453 0 0.000351044390970289789)
(1.05444236201486286 0 0.000698920909913409928)
(1.06032833497758761 0 0.000706930625462349267)
(1.06610932172546691 0 0.000129307891467306848)
(0.999995623039587556 -9.16313980927776797e-11 0.00141401166693024731)
(1.00141423081457637 -9.16658219993741575e-11 0.00309677439532647604)
(1.00456712221293398 0 0.00496033686862991721)
(1.00853253303210422 -9.16452447752506492e-11 0.00662061386694008398)
(1.01252264555614269 -9.16329214187311149e-11 0.00779571983283122456)
(1.01657076219602938 0 0.00846102300994344865)
(1.021043642363755 0 0.00873339945399777447)
(1.02599957022729749 0 0.00873492102778312789)
(1.03118292079277607 0 0.00856674464888201002)
(1.03638519620321312 0 0.00830225655694914397)
(1.04162482327812089 0 0.00796951613430182775)
(1.04702898260360167 0 0.00756389113479969885)
(1.05261519970145567 0 0.00717936694083469093)
(1.05826836479481212 0 0.00695125281294766469)
(1.06388129872087189 0 0.00704682170050582434)
(1.00001435935834504 9.16313511556319085e-11 -0.00139854893150521075)
(1.00146581523312816 9.1665703316352976e-11 -0.00307799868034468573)
(1.00463824272091617 0 -0.00494638693952914599)
(1.00858950127550284 9.16451456180115256e-11 -0.00661548695260962775)
(1.01253716908777092 1.83265891891719716e-10 -0.00779479265492066895)
(1.01653401467585569 9.16195601121020957e-11 -0.00845989345684176539)
(1.02095227930413657 0 -0.00872979534690367792)
(1.02584153891554286 0 -0.00873385694504894006)
(1.03095125757345119 0 -0.00856743705453043639)
(1.03612933061294621 -9.15589204726232803e-11 -0.00830507681091159113)
(1.04144744883160123 -9.1542274397656128e-11 -0.00801230775759192472)
(1.04698150640802146 0 -0.00774815066226680876)
(1.05269379528238871 0 -0.00760595224826526601)
(1.05848670074579787 0 -0.00772687310435043236)
(1.06422524838552679 0 -0.00829008916267038806)
(1.00002087323363997 0 -0.000382985533999921342)
(1.00125546671327603 0 -7.34729826214989971e-05)
(1.00427723854761597 0 0.000964878693643603453)
(1.00837475465154269 0 0.00201302197481716995)
(1.0126774711640536 -9.16197024195948994e-11 0.00251098755434193749)
(1.01703974015100229 -9.16042911809692054e-11 0.00248725633140016184)
(1.02174262209536204 0 0.00222143569563137619)
(1.0268456298427977 0 0.00185701441775226804)
(1.03212439771002717 0 0.00137554349316242942)
(1.03742610725384599 9.15388573171969404e-11 0.000759949851840264123)
(1.04280346115207156 1.83042916771782671e-10 7.05786133279277935e-05)
(1.04835272633674559 9.15038219236258616e-11 -0.000589884582793279611)
(1.05405543317334871 9.14862780449194703e-11 -0.00112020815309244967)
(1.05978638708332285 9.1469435866237999e-11 -0.00134078710025079483)
(1.06537259210748347 0 -0.000959893596272301682)
(0.999996135614721005 0 -0.00406773019277795276)
(1.00175829622133339 0 -0.00820404324013239775)
(1.00534653453057876 0 -0.0117547405550717902)
(1.00950283690155707 -1.83240094908810357e-10 -0.0143084891726061852)
(1.01347878855013107 -3.664188528764616e-10 -0.0159745000018902787)
(1.01755580208847252 -1.83176699903995469e-10 -0.0169672700118971322)
(1.02219272808012906 0 -0.0174065787080448127)
(1.02734225433508164 0 -0.0174554134432675194)
(1.03266480505339975 0 -0.0173239489879522743)
(1.03800527723014269 0 -0.0171393178156940551)
(1.04345834016473193 -9.15024620979824583e-11 -0.0169280584227788911)
(1.04913202045842979 -9.1484074792025375e-11 -0.0167099229601616502)
(1.05500539678870009 -9.14658093732608047e-11 -0.0165532663739549821)
(1.06095944299154987 -9.14484346425087981e-11 -0.0165566454994335449)
(1.06684301276943061 0 -0.0168406667731337521)
(1.00002706090533966 1.83235552440352568e-10 -0.00156899093292102421)
(1.00175367894104816 1.83279654187798828e-10 -0.00195265512937325752)
(1.00573649897877937 0 -0.00130154876636586728)
(1.01056611516120021 1.83209175428011608e-10 -0.000921276821358136947)
(1.01511223543082707 3.66346184130470372e-10 -0.0014468003691999081)
(1.01959611912210768 1.83135450149009037e-10 -0.00247415352469184746)
(1.02456275485485016 1.83098790563325719e-10 -0.00347153813121940267)
(1.02993952599002836 1.83063499910595957e-10 -0.00436162245032399067)
(1.03535756333799345 0 -0.00530851122001096704)
(1.04073501414278824 -1.82991210512608265e-10 -0.00637347346479971884)
(1.04625766109752338 -1.82953302817893654e-10 -0.00747713694232150176)
(1.05205545455218985 0 -0.00850364997600536882)
(1.05808165476169846 0 -0.00929284453475889491)
(1.06418412241185312 -1.82841747989785469e-10 -0.00953375029259889012)
(1.07013251553905353 -1.82804521819744153e-10 -0.0087473658161368352)
(0.999995369416910251 -1.83219659685823283e-10 -0.008539488679620795)
(1.00274364636500635 -1.83251815261086747e-10 -0.0159789164403422758)
(1.00766820297136461 0 -0.0209155192315550117)
(1.01249624966864382 0 -0.0237606584988836085)
(1.01658383262279806 0 -0.0255442173764983058)
(1.02091012933927439 0 -0.0266007986930814275)
(1.02610153391309766 -1.83057132308900891e-10 -0.026962804385893796)
(1.03174434315325358 -1.83020577811765735e-10 -0.026903732987079227)
(1.03729447536983077 0 -0.0267461344341454153)
(1.04274999401598767 1.82944729182058834e-10 -0.0266084028787627845)
(1.04839951062817271 1.82904701618504686e-10 -0.0264845186291237863)
(1.05439162435041123 0 -0.0263906151241462238)
(1.06069779707579048 0 -0.0263588735263663165)
(1.06726867533336467 1.82782885648322185e-10 -0.0263718169238078004)
(1.07403974947732728 1.82740434323833544e-10 -0.0263729989871519521)
(1.00003169776468703 -1.83199898848470513e-10 -0.00257672725194244348)
(1.00352649723720821 -1.83217466720333214e-10 -0.00320027516804799114)
(1.01012071761400768 0 -0.00277409002339450671)
(1.01628420082017645 0 -0.00351750360523087882)
(1.02093347516690436 -1.83080341559228106e-10 -0.00555803533877230818)
(1.02559372394408221 -1.83034969855145475e-10 -0.00765094225350168231)
(1.03112303059416988 0 -0.00919612527491478829)
(1.0369177134979839 0 -0.0105027176341585468)
(1.0423869057902222 0 -0.0119261446385552222)
(1.04767391717517477 0 -0.0134879264227517892)
(1.05315065392446749 0 -0.0150788457837986254)
(1.05893388027578639 0 -0.0166045552901072611)
(1.06496476733828671 0 -0.0178579557246564755)
(1.07121900066218778 0 -0.0183331061946101666)
(1.07766667494345736 0 -0.0172462655643220823)
(1.00000706636471204 1.83169177711557367e-10 -0.0178164861363912866)
(1.00546920298527254 1.8317359396449828e-10 -0.0288606131051403481)
(1.01334117445990035 0 -0.033089165400277884)
(1.01907174114306098 0 -0.0349855248545577133)
(1.02310873329207896 1.83031725910587942e-10 -0.036558408013488794)
(1.02794914273074389 1.82984623486296804e-10 -0.0374166590509115021)
(1.03394092832154549 0 -0.0374159835524340428)
(1.03979831853856308 0 -0.0370511174296783707)
(1.04488428294310087 0 -0.0367102364349383564)
(1.04955686878426069 -3.65675494086759479e-10 -0.0364690227125882699)
(1.0542260126590639 -3.65606105144188656e-10 -0.0363516074093495067)
(1.05890812911386734 0 -0.0364505646666772529)
(1.06351842362176119 0 -0.036835700236002987)
(1.06818058984763664 0 -0.0374386668990990615)
(1.07316117129871191 0 -0.0379778838218552614)
(0.999886951256802714 0 -0.00381117354634630864)
(1.00962142701218904 0 -0.0042796044461034799)
(1.02138056142531641 0 -0.00449408276637540665)
(1.02735571739589782 0 -0.00734807952566062655)
(1.0297869067896146 0 -0.0107316623517399561)
(1.03298217777759915 0 -0.0129975207080900504)
(1.03712073171661645 0 -0.0144929938221443465)
(1.04042139403757083 0 -0.0159303474804089983)
(1.04229895939013306 0 -0.0174748838329473223)
(1.04332067421852925 3.65717580694083249e-10 -0.0190138800587110399)
(1.04388905511144814 7.31410819435038013e-10 -0.0205149593744530546)
(1.04387592783053029 3.65703103424576844e-10 -0.0219830122861872194)
(1.04308008865203594 0 -0.0232146443241211392)
(1.04161359953798804 0 -0.0236134396145026432)
(1.03993110855953264 0 -0.0222314938831799959)
(0.997863158821338803 0 -0.0413336437328046882)
(1.00760579268604689 0 -0.0484018995536164218)
(1.01525949542068261 0 -0.0459634669710934363)
(1.01326444875848187 0 -0.0461181940742111315)
(1.00788529106469382 -1.8308551492505334e-10 -0.0469145180360528921)
(1.00356848446884617 -1.83107579989451897e-10 -0.0462673094556704453)
(0.999316980406881217 0 -0.0446565847502727528)
(0.993184751110195774 0 -0.0429087674084274381)
(0.985096097010709104 0 -0.0412717907491942232)
(0.975960695710664905 0 -0.03971959665331809)
(0.966183281510364145 -3.66723895000465684e-10 -0.0383010585166427067)
(0.955525816452839072 -3.66878712522069729e-10 -0.0372119177562571582)
(0.943734003924029174 0 -0.0367554638571795933)
(0.930960300505717098 0 -0.037220837332970956)
(0.917782365460784844 0 -0.0385692514075245477)
(0.956230702448561898 -1.83122481935468701e-10 -0.000787670389034996789)
(0.950426457464312202 -1.83410497087819994e-10 -0.0016650480314603529)
(0.925967520946034184 0 -0.00201905633932152094)
(0.884927594021305164 -1.8382863194965873e-10 -0.00218053770003620801)
(0.845462548978498152 0 -0.00246277783590696147)
(0.81220109945198482 1.84244953388450231e-10 -0.00282776015410814282)
(0.781307987060660625 0 -0.00315764172598155231)
(0.749919834190765355 0 -0.0034198623778565326)
(0.71837504293199983 0 -0.0036465078863003788)
(0.687991379550995208 0 -0.00386401058595418857)
(0.659142938139837375 0 -0.00404643904275722201)
(0.631327745635271942 0 -0.00407604221514011947)
(0.604007914651808919 0 -0.00369913737490853121)
(0.577012778207414145 0 -0.00255315973014847569)
(0.550457960185049888 0 -0.000370566297536170739)
(0.527376910989457603 0 -0.00187857085613183142)
(0.504325065729188893 -1.16649982133840471e-11 -0.00478279477565492737)
(0.484211265494911836 -1.16978566797276216e-11 -0.00756655737718458198)
(0.467888109134792785 5.27758169594278002e-10 -0.00974384836194217181)
(0.455109680601591626 -1.24582879100954604e-09 -0.0109110480947302874)
(0.447484432666750864 6.9458204559197181e-10 -0.0127972608922321904)
(0.446439337280559567 0 -0.0189610118846433549)
(0.449541832153833698 -3.54118443984961515e-10 -0.0226042175378351161)
(0.454407345928884376 3.5501956258303466e-10 -0.0220089897672066173)
(0.458950201415192771 7.12412660649124799e-10 -0.0209882753991166952)
(0.462309513751061163 -1.07226773621561098e-09 -0.0223653650235589724)
(0.46450806157868807 3.58404576895663183e-10 -0.0261189770527001479)
(0.464624299324977008 0 -0.0249853826650120875)
(0.46008044303733836 0 -0.0210769484054668145)
(0.452209223178665798 0 -0.020001569664573296)
(0.441717259092136938 3.6176376332464976e-10 -0.0199428166378702622)
(0.429082970533658514 -3.62535626810158545e-10 -0.0199855148271215373)
(0.415397684200030259 0 -0.0197741920918725819)
(0.402542884076455831 0 -0.019243464586647132)
(0.392928364889495618 0 -0.0181989023716319226)
(0.389654311476103243 0 -0.026444866353231903)
(0.392540589838121345 -3.64144319547596785e-10 -0.0330740868758892803)
(0.399684704148321579 3.64066597756793575e-10 -0.0334711100732606251)
(0.409343394995902221 1.21321305111223059e-11 -0.0317535129684289943)
(0.419729426674804951 -6.31176157076369977e-26 -0.0290144906136214076)
(0.43006785060273589 -1.21242831050122782e-11 -0.0257850378610787606)
(0.44001952523770288 1.4544754584253682e-09 -0.0222363483599962997)
(0.449230400775183114 -1.46624741869764452e-09 -0.0185619869796254909)
(0.457352394514246863 -1.21155682735080498e-11 -0.0149202400571623994)
(0.464105002553916957 0 -0.0115223861395898526)
(0.469338180579011888 7.26737881869199967e-10 -0.00877890561276616598)
(0.473208049607261261 -1.45332941981236802e-09 -0.00780690348476536546)
(0.476012794382739635 -2.17978198416414324e-09 -0.0108678406161280879)
(0.478273176480390416 2.90635790326956665e-09 -0.0180689809700056853)
(0.478765275622323072 -7.26612223940434598e-10 -0.020618694263322853)
(0.473349838202224815 2.18027058072668691e-09 -0.0204088474265319945)
(0.466068076967484091 -1.45391576547186077e-09 -0.0216756803043906682)
(0.458881841356482412 0 -0.023264557088995802)
(0.451315554346332082 0 -0.0247136583441776546)
(0.443172767999973627 0 -0.0256949616755105595)
(0.434227580059615426 0 -0.0259361225974320819)
(0.424108920205678475 0 -0.0253595766036072215)
(0.412567106809351658 0 -0.024224935354707277)
(0.399713506954047282 1.45786914154909396e-09 -0.022967526569553285)
(0.386279130905114565 -1.4587125499902066e-09 -0.0217859606005452767)
(0.373563089571013751 0 -0.0204339625224991758)
(0.363204921877487041 7.30144352889283527e-10 -0.018830005192215539)
(0.357016369257349031 -7.30393579865504073e-10 -0.0213872062375735431)
(0.355975176665755344 0 -0.0300913761465103277)
(0.357179899084050623 0 -0.0272561733078642947)
(0.356810240590748673 0 -0.016921129917333546)
(0.356632221291469709 0 -0.019340721810717592)
(0.358122569043625327 0 -0.0220082355378930922)
(0.361885260136827702 0 -0.0218339316195695146)
(0.366340660783475047 -1.46016990064140836e-09 -0.0205156526664517017)
(0.370563743241230925 1.4599113135250362e-09 -0.0186116271980257576)
(0.374401809195570479 0 -0.0174229172331339319)
(0.377783575542556871 -1.45945333274530069e-09 -0.0183031078992049075)
(0.380502865480344066 1.45932295427164422e-09 -0.0216099583290885779)
(0.381932013709551987 0 -0.0192326659931233955)
(0.380410146302063656 -2.91876026995689492e-09 -0.010750441004067763)
(0.376814547231987429 2.91914221917389211e-09 -0.00641425753844138569)
(0.373259981100966753 -1.45979747223718024e-09 -0.00341597566575768024)
(0.370820702569625904 -1.46000097920702325e-09 1.79025400267054745e-05)
(0.368785228363750439 5.84066867039637577e-09 -0.00804723171001324282)
(0.369796846461442175 -5.8398397595025606e-09 -0.0119103773738886438)
(0.373723924747008718 2.90724679001129664e-09 -0.0120293826307761656)
(0.37866264092345614 -1.2161735964172488e-11 -0.0117508778439871387)
(0.383881556279669967 2.9181366943266703e-09 -0.011468128360655078)
(0.389713289621033243 -5.11751422147119968e-09 -0.0117205442895507699)
(0.396426584429555529 2.17517411019950888e-09 -0.0124612814176431816)
(0.404061638133405565 1.45771119303032887e-09 -0.0132361682076615559)
(0.412386996925970473 -7.28592771244245385e-10 -0.0136488331552207728)
(0.420885262961885498 -7.28341163071670361e-10 -0.0133923695081840082)
(0.431829204078084949 0 -0.0122421465210414537)
(0.905981350402732755 0 0.0405950856105065511)
(0.894762717144025221 1.14195732800276501e-11 0.0419798556045032356)
(0.885407469063611008 1.14327536056822084e-11 0.0416795684928943019)
(0.878735468703635947 6.86756831157009945e-10 0.0381749535747659546)
(0.874027868448696288 -1.3406198160877129e-09 0.0302687581803481286)
(0.870612270525985776 6.9963697140942676e-10 0.0201926179310314841)
(0.867562076107515012 -2.29570059384297654e-11 0.0155484890174348179)
(0.864931284041441928 -3.44547100154257159e-10 0.0137718078052470206)
(0.862959671256688488 -6.25408743763386559e-19 0.0128083353382103665)
(0.862237275119698721 1.03589096022885974e-09 0.012938543919438359)
(0.862002342052249459 -6.92229906637352311e-10 0.0148185391101333629)
(0.860142474481313979 0 0.0228813360783867645)
(0.855171978693700652 0 0.0293081937196959137)
(0.850127731598272707 0 0.0317794300974449662)
(0.844661416807784171 0 0.0362407893410386789)
(0.837839054118226456 3.51373730116797197e-10 0.0410498852010680454)
(0.830404627238390924 -3.52530779095604023e-10 0.0443811412230886715)
(0.823620932400244588 0 0.0448228530941678152)
(0.818479439392714392 0 0.0410591095373384896)
(0.815835088905421557 0 0.0316689869166906432)
(0.815215453416576752 3.55753748142170638e-10 0.0261478865955057579)
(0.814996651496843194 -7.12078241614094593e-10 0.0215830153026104372)
(0.814476133918208944 1.06897747158382822e-09 0.0172865981645528508)
(0.815383250006931681 -7.25118172405935762e-10 0.0137588384352787373)
(0.818218659779357815 -6.89944933275062752e-10 0.0105527683762143814)
(0.822460515349524912 7.49723983359563265e-10 0.00762563722346407472)
(0.828081000406982071 1.42820812010504974e-09 0.00521833685204946014)
(0.834994961288860527 -1.39255323632987787e-09 0.00338138408034820669)
(0.843220532301121928 3.57072006160698299e-11 0.00208361946577522144)
(0.852692440150588093 2.38073067650444484e-11 0.00134164003082500754)
(0.863077003608329507 2.3812204542486225e-11 0.000992793468029815485)
(0.873615151085775365 -7.14351882806245506e-10 0.00100284963348912042)
(0.883457963806872026 -7.14274121683559259e-10 0.00344263607056027442)
(0.888945240418269167 1.42886039727788704e-09 0.0148988076234372047)
(0.887783496874392619 0 0.0268432210675971748)
(0.886962358589630906 7.14538124043350957e-10 0.030938497327115913)
(0.887205656797079079 -1.42916109668738607e-09 0.03385195725722219)
(0.886890881870760373 7.14628506937262373e-10 0.0364172340868372801)
(0.884868442117378806 0 0.0387345702096208236)
(0.881007765615350213 0 0.0411088964777728549)
(0.875116444130503268 0 0.043598502252798689)
(0.867260450953092232 0 0.0459787036729309706)
(0.858033819222677185 0 0.0478818515765655206)
(0.848321073542142035 1.43123896006486009e-09 0.0487395412427706967)
(0.838906096200546236 -1.43183853090059616e-09 0.0476220994705539927)
(0.830245045664757098 7.16253128203440811e-10 0.0433037401764758065)
(0.822462473005379113 -2.50757759264684289e-17 0.0347101559307184601)
(0.81488766755687525 -7.17020817670926165e-10 0.0262244942294259098)
(0.805331598511563218 0 0.0289078440523881028)
(0.794199092426961295 0 0.0292740778311063633)
(0.787586194209938251 1.43574390965195372e-09 0.0194184599602199616)
(0.787960142742825331 -1.43590543293589537e-09 0.0180264050183403489)
(0.78924470002197944 0 0.0160391118391510004)
(0.790394071822323463 0 0.0144276784220004079)
(0.794668927726282059 -1.43506120133148758e-09 0.013098809014525167)
(0.801862242740106534 1.434610721255601e-09 0.0116380701411077109)
(0.810171086745123503 0 0.0108020822913309708)
(0.818004279982568305 -1.43376113954594291e-09 0.0120686068756615198)
(0.823513441493050724 1.43367300319771791e-09 0.0171561242598161114)
(0.825042075589085711 0 0.0206784679820481536)
(0.825288124702584835 -2.86709566419528911e-09 0.016958866371328412)
(0.827244369822511372 2.150113386432828e-09 0.0140422116537058852)
(0.827793387882435505 -7.16717305646690807e-10 0.0106145639836776415)
(0.82625945447831628 1.43344584534078233e-09 0.00886241717616101723)
(0.830416965866933476 2.86666335527122369e-09 0.00775776999629495048)
(0.833081908473392474 -3.58286331980709453e-09 0.00640660492701985822)
(0.833058105590304798 7.28441096296956476e-10 0.0047700768641513536)
(0.834404639660392355 1.19400143884054415e-11 0.00333094719725477578)
(0.837738004231428746 2.86510203101095254e-09 0.00160518450216665977)
(0.841731499904497693 -2.85259855559760628e-09 -3.89360105729814565e-05)
(0.845501509360247594 1.19332989404170373e-11 -0.00122998232625037753)
(0.848633551283761167 7.15889853200420054e-10 -0.00187340953200908103)
(0.850980180414822485 -6.41730117213426957e-19 -0.00195508518151883996)
(0.852657573120975787 -7.15782931344621074e-10 -0.00143168121808431013)
(0.855255271479589574 0 -0.000172329805601138922)
(1.03933131948090063 0 0.0203358680955686051)
(1.03852967467428803 0 0.0165615383562626936)
(1.03877208466678139 2.26751375119993861e-11 0.0111169047641526426)
(1.04042284949618602 3.6295142707132825e-10 0.00446439724229175192)
(1.04246154548353442 -3.63122124183795959e-10 -0.00223640254073995083)
(1.04303515414236814 0 -0.0086575901875999943)
(1.04161198551124112 4.54357692821954971e-11 -0.0144287135938331174)
(1.04006200826908546 -6.58988664946245218e-10 -0.0182968876137737692)
(1.03938038941164357 3.40982784237317135e-10 -0.0200519092393536755)
(1.03854513469981069 3.41244063966418092e-10 -0.0200205393146282926)
(1.03650033708216172 0 -0.0182176087061181081)
(1.03222900269513729 0 -0.0173649182253854395)
(1.02838928572101329 0 -0.0153292365564284584)
(1.02452793553925203 0 -0.0107553384875206694)
(1.01917152906654773 0 -0.00675874858749844157)
(1.01356174036980806 6.909655509143496e-10 -0.00459289904140542955)
(1.00916127724767701 -6.93302677017310603e-10 -0.00444961043967801676)
(1.00661472809117547 -4.63713599722539522e-11 -0.00643525011762003264)
(1.00596742988964993 -4.6505626258231775e-11 -0.0106675194033753768)
(1.00661081248623208 0 -0.0176677529168204547)
(1.00721291427739601 3.50262679391652898e-10 -0.0274144340160692064)
(1.00795404420047463 -7.47979011040899134e-10 -0.0330921866147926083)
(1.01035369361157068 1.0296553746523206e-09 -0.0361595641142975627)
(1.01382307698500784 -6.7965189787320099e-10 -0.0374422063581363804)
(1.01716049291407074 -7.27865329028611998e-10 -0.0376162881253565909)
(1.01953993775619067 6.82019475380955784e-10 -0.0371292079463416066)
(1.02080856591640368 1.05935962964134871e-09 -0.0361541620988343401)
(1.0206708889102063 -1.08376980250744666e-09 -0.0349422678445714743)
(1.01930311396221729 -4.32213348167091352e-20 -0.0335310863994343483)
(1.01726784887656763 -7.04424693967410788e-20 -0.0319888193957540701)
(1.01481614987870716 -2.36208068025551467e-11 -0.0301103993782682079)
(1.01180461157561741 -7.09328443341395722e-10 -0.0268803619505171947)
(1.00856187799291486 -7.09825859182695182e-10 -0.0216123988727651116)
(1.00545783642234809 1.42059494456445276e-09 -0.017941806614487462)
(1.0087796189299536 -4.73618292316389487e-11 -0.017667290015151646)
(1.01922767821244786 7.10395606846581572e-10 -0.0162456487294487875)
(1.02898428395313246 -2.08365858333903666e-09 -0.0193350656888815163)
(1.03443203337625311 1.4676998202834496e-09 -0.019377495790818329)
(1.03667792016940918 0 -0.0182274413142607707)
(1.03775501145065352 -4.9268115612743039e-25 -0.0158352567676988236)
(1.03777144649806718 4.73319178867253265e-11 -0.0125937920708107318)