 vasp.5.3.5 31Mar14 (build Jan 31 2018 16:04:57) complex                        
  
 executed on             LinuxIFC date 2018.12.29  17:03:22
 running on    8 total cores
 distrk:  each k-point on    8 cores,    1 groups
 distr:  one band on NCORES_PER_BAND=   1 cores,    8 groups


--------------------------------------------------------------------------------------------------------


 INCAR:
 POTCAR:    PAW_PBE Co 02Aug2007                  
 POTCAR:    PAW_PBE C 08Apr2002                   
 POTCAR:    PAW_PBE O 08Apr2002                   
 POTCAR:    PAW_PBE H 15Jun2001                   

 ----------------------------------------------------------------------------- 
|                                                                             |
|           W    W    AA    RRRRR   N    N  II  N    N   GGGG   !!!           |
|           W    W   A  A   R    R  NN   N  II  NN   N  G    G  !!!           |
|           W    W  A    A  R    R  N N  N  II  N N  N  G       !!!           |
|           W WW W  AAAAAA  RRRRR   N  N N  II  N  N N  G  GGG   !            |
|           WW  WW  A    A  R   R   N   NN  II  N   NN  G    G                |
|           W    W  A    A  R    R  N    N  II  N    N   GGGG   !!!           |
|                                                                             |
|      For optimal performance we recommend to set                            |
|        NCORE= 4 - approx SQRT( number of cores)                             |
|      NCORE specifies how many cores store one orbital (NPAR=cpu/NCORE).     |
|      This setting can  greatly improve the performance of VASP for DFT.     |
|      The default, NPAR=number of cores might be grossly inefficient         |
|      on modern multi-core architectures or massively parallel machines.     |
|      Do your own testing !!!!                                               |
|      Unfortunately you need to use the default for GW and RPA calculations. |
|      (for HF NCORE is supported but not extensively tested yet)             |
|                                                                             |
 ----------------------------------------------------------------------------- 

 POTCAR:    PAW_PBE Co 02Aug2007                  
   VRHFIN =Co: d8 s1                                                            
   LEXCH  = PE                                                                  
   EATOM  =   813.3670 eV,   59.7808 Ry                                         
                                                                                
   TITEL  = PAW_PBE Co 02Aug2007                                                
   LULTRA =        F    use ultrasoft PP ?                                      
   IUNSCR =        1    unscreen: 0-lin 1-nonlin 2-no                           
   RPACOR =    2.000    partial core radius                                     
   POMASS =   58.933; ZVAL   =    9.000    mass and valenz                      
   RCORE  =    2.300    outmost cutoff radius                                   
   RWIGS  =    2.460; RWIGS  =    1.302    wigner-seitz radius (au A)           
   ENMAX  =  267.968; ENMIN  =  200.976 eV                                      
   RCLOC  =    1.203    cutoff for local pot                                    
   LCOR   =        T    correct aug charges                                     
   LPAW   =        T    paw PP                                                  
   EAUG   =  477.818                                                            
   DEXC   =    0.000                                                            
   RMAX   =    2.360    core radius for proj-oper                               
   RAUG   =    1.300    factor for augmentation sphere                          
   RDEP   =    2.393    radius for radial grids                                 
   RDEPT  =    1.864    core radius for aug-charge                              
                                                                                
   Atomic configuration                                                         
    9 entries                                                                   
     n  l   j            E        occ.                                          
     1  0  0.50     -7587.6674   2.0000                                         
     2  0  0.50      -893.6084   2.0000                                         
     2  1  1.50      -764.5805   6.0000                                         
     3  0  0.50       -97.5973   2.0000                                         
     3  1  1.50       -60.9648   6.0000                                         
     3  2  2.50        -4.2382   8.0000                                         
     4  0  0.50        -4.3746   1.0000                                         
     4  1  1.50        -4.0817   0.0000                                         
     4  3  2.50        -1.3606   0.0000                                         
   Description                                                                  
     l       E           TYP  RCUT    TYP  RCUT                                 
     2     -4.2382362     23  2.300                                             
     2     -5.5988188     23  2.300                                             
     0     -4.3745797     23  2.300                                             
     0      5.7660125     23  2.300                                             
     1     -2.7211652     23  2.300                                             
     1     16.9860234     23  2.300                                             
  local pseudopotential read in
  partial core-charges read in
  partial kinetic energy density read in
  atomic valenz-charges read in
  non local Contribution for L=           2  read in
    real space projection operators read in
  non local Contribution for L=           2  read in
    real space projection operators read in
  non local Contribution for L=           0  read in
    real space projection operators read in
  non local Contribution for L=           0  read in
    real space projection operators read in
  non local Contribution for L=           1  read in
    real space projection operators read in
  non local Contribution for L=           1  read in
    real space projection operators read in
    PAW grid and wavefunctions read in
 
   number of l-projection  operators is LMAX  =           6
   number of lm-projection operators is LMMAX =          18
 
 POTCAR:    PAW_PBE C 08Apr2002                   
   VRHFIN =C: s2p2                                                              
   LEXCH  = PE                                                                  
   EATOM  =   147.1560 eV,   10.8157 Ry                                         
                                                                                
   TITEL  = PAW_PBE C 08Apr2002                                                 
   LULTRA =        F    use ultrasoft PP ?                                      
   IUNSCR =        1    unscreen: 0-lin 1-nonlin 2-no                           
   RPACOR =    1.200    partial core radius                                     
   POMASS =   12.011; ZVAL   =    4.000    mass and valenz                      
   RCORE  =    1.500    outmost cutoff radius                                   
   RWIGS  =    1.630; RWIGS  =    0.863    wigner-seitz radius (au A)           
   ENMAX  =  400.000; ENMIN  =  300.000 eV                                      
   ICORE  =        2    local potential                                         
   LCOR   =        T    correct aug charges                                     
   LPAW   =        T    paw PP                                                  
   EAUG   =  644.873                                                            
   DEXC   =    0.000                                                            
   RMAX   =    1.529    core radius for proj-oper                               
   RAUG   =    1.300    factor for augmentation sphere                          
   RDEP   =    1.501    radius for radial grids                                 
   RDEPT  =    1.300    core radius for aug-charge                              
                                                                                
   Atomic configuration                                                         
    4 entries                                                                   
     n  l   j            E        occ.                                          
     1  0  0.50      -273.3789   2.0000                                         
     2  0  0.50       -13.7508   2.0000                                         
     2  1  0.50        -5.2854   2.0000                                         
     3  2  1.50        -5.4423   0.0000                                         
   Description                                                                  
     l       E           TYP  RCUT    TYP  RCUT                                 
     0    -13.7508458     23  1.200                                             
     0     -8.2022199     23  1.200                                             
     1     -5.2854383     23  1.500                                             
     1     34.0145650     23  1.500                                             
     2     -5.4423304      7  1.500                                             
  local pseudopotential read in
  partial core-charges read in
  partial kinetic energy density read in
  atomic valenz-charges read in
  non local Contribution for L=           0  read in
    real space projection operators read in
  non local Contribution for L=           0  read in
    real space projection operators read in
  non local Contribution for L=           1  read in
    real space projection operators read in
  non local Contribution for L=           1  read in
    real space projection operators read in
    PAW grid and wavefunctions read in
 
   number of l-projection  operators is LMAX  =           4
   number of lm-projection operators is LMMAX =           8
 
 POTCAR:    PAW_PBE O 08Apr2002                   
   VRHFIN =O: s2p4                                                              
   LEXCH  = PE                                                                  
   EATOM  =   432.3788 eV,   31.7789 Ry                                         
                                                                                
   TITEL  = PAW_PBE O 08Apr2002                                                 
   LULTRA =        F    use ultrasoft PP ?                                      
   IUNSCR =        1    unscreen: 0-lin 1-nonlin 2-no                           
   RPACOR =    1.200    partial core radius                                     
   POMASS =   16.000; ZVAL   =    6.000    mass and valenz                      
   RCORE  =    1.520    outmost cutoff radius                                   
   RWIGS  =    1.550; RWIGS  =    0.820    wigner-seitz radius (au A)           
   ENMAX  =  400.000; ENMIN  =  300.000 eV                                      
   ICORE  =        2    local potential                                         
   LCOR   =        T    correct aug charges                                     
   LPAW   =        T    paw PP                                                  
   EAUG   =  605.392                                                            
   DEXC   =    0.000                                                            
   RMAX   =    1.553    core radius for proj-oper                               
   RAUG   =    1.300    factor for augmentation sphere                          
   RDEP   =    1.550    radius for radial grids                                 
   RDEPT  =    1.329    core radius for aug-charge                              
                                                                                
   Atomic configuration                                                         
    4 entries                                                                   
     n  l   j            E        occ.                                          
     1  0  0.50      -514.6923   2.0000                                         
     2  0  0.50       -23.9615   2.0000                                         
     2  1  0.50        -9.0305   4.0000                                         
     3  2  1.50        -9.5241   0.0000                                         
   Description                                                                  
     l       E           TYP  RCUT    TYP  RCUT                                 
     0    -23.9615318     23  1.200                                             
     0     -9.5240782     23  1.200                                             
     1     -9.0304911     23  1.520                                             
     1      8.1634956     23  1.520                                             
     2     -9.5240782      7  1.500                                             
  local pseudopotential read in
  partial core-charges read in
  partial kinetic energy density read in
  kinetic energy density of atom read in
  atomic valenz-charges read in
  non local Contribution for L=           0  read in
    real space projection operators read in
  non local Contribution for L=           0  read in
    real space projection operators read in
  non local Contribution for L=           1  read in
    real space projection operators read in
  non local Contribution for L=           1  read in
    real space projection operators read in
    PAW grid and wavefunctions read in
 
   number of l-projection  operators is LMAX  =           4
   number of lm-projection operators is LMMAX =           8
 
 POTCAR:    PAW_PBE H 15Jun2001                   
   VRHFIN =H: ultrasoft test                                                    
   LEXCH  = PE                                                                  
   EATOM  =    12.4884 eV,    0.9179 Ry                                         
                                                                                
   TITEL  = PAW_PBE H 15Jun2001                                                 
   LULTRA =        F    use ultrasoft PP ?                                      
   IUNSCR =        0    unscreen: 0-lin 1-nonlin 2-no                           
   RPACOR =    0.000    partial core radius                                     
   POMASS =    1.000; ZVAL   =    1.000    mass and valenz                      
   RCORE  =    1.100    outmost cutoff radius                                   
   RWIGS  =    0.700; RWIGS  =    0.370    wigner-seitz radius (au A)           
   ENMAX  =  250.000; ENMIN  =  200.000 eV                                      
   RCLOC  =    0.701    cutoff for local pot                                    
   LCOR   =        T    correct aug charges                                     
   LPAW   =        T    paw PP                                                  
   EAUG   =  400.000                                                            
   RMAX   =    1.123    core radius for proj-oper                               
   RAUG   =    1.200    factor for augmentation sphere                          
   RDEP   =    1.112    radius for radial grids                                 
   RDEPT  =    0.926    core radius for aug-charge                              
                                                                                
   Atomic configuration                                                         
    2 entries                                                                   
     n  l   j            E        occ.                                          
     1  0  0.50        -6.4927   1.0000                                         
     2  1  0.50        -3.4015   0.0000                                         
   Description                                                                  
     l       E           TYP  RCUT    TYP  RCUT                                 
     0     -6.4927494     23  1.100                                             
     0      6.8029130     23  1.100                                             
     1     -4.0817478     23  1.100                                             
  local pseudopotential read in
  atomic valenz-charges read in
  non local Contribution for L=           0  read in
    real space projection operators read in
  non local Contribution for L=           0  read in
    real space projection operators read in
  non local Contribution for L=           1  read in
    real space projection operators read in
    PAW grid and wavefunctions read in
 
   number of l-projection  operators is LMAX  =           3
   number of lm-projection operators is LMMAX =           5
 
 Optimization of the real space projectors (new method)

 maximal supplied QI-value         = 16.25
 optimisation between [QCUT,QGAM] = [ 10.24, 20.48] = [ 29.35,117.42] Ry 
 Optimized for a Real-space Cutoff    1.34 Angstroem

   l    n(q)    QCUT    max X(q) W(low)/X(q) W(high)/X(q)  e(spline) 
   2      7    10.239    65.824    0.41E-03    0.10E-02    0.11E-06
   2      7    10.239    61.429    0.41E-03    0.10E-02    0.11E-06
   0      8    10.239    56.174    0.42E-03    0.17E-03    0.96E-07
   0      8    10.239    31.263    0.38E-03    0.16E-03    0.87E-07
   1      8    10.239    19.828    0.20E-03    0.56E-03    0.13E-06
   1      8    10.239    15.139    0.15E-03    0.46E-03    0.11E-06
 Optimization of the real space projectors (new method)

 maximal supplied QI-value         = 25.13
 optimisation between [QCUT,QGAM] = [ 10.05, 20.36] = [ 28.30,116.06] Ry 
 Optimized for a Real-space Cutoff    1.30 Angstroem

   l    n(q)    QCUT    max X(q) W(low)/X(q) W(high)/X(q)  e(spline) 
   0      8    10.053   115.676    0.49E-03    0.72E-03    0.18E-06
   0      8    10.053    87.132    0.49E-03    0.71E-03    0.18E-06
   1      7    10.053     4.429    0.32E-03    0.31E-03    0.18E-06
   1      7    10.053     2.733    0.23E-03    0.19E-03    0.20E-06
 Optimization of the real space projectors (new method)

 maximal supplied QI-value         = 24.76
 optimisation between [QCUT,QGAM] = [ 10.15, 20.30] = [ 28.85,115.39] Ry 
 Optimized for a Real-space Cutoff    1.38 Angstroem

   l    n(q)    QCUT    max X(q) W(low)/X(q) W(high)/X(q)  e(spline) 
   0      8    10.150    20.381    0.22E-03    0.32E-03    0.29E-06
   0      8    10.150    15.268    0.23E-03    0.35E-03    0.30E-06
   1      8    10.150     5.964    0.46E-03    0.53E-03    0.21E-06
   1      8    10.150     5.382    0.38E-03    0.45E-03    0.19E-06
 Optimization of the real space projectors (new method)

 maximal supplied QI-value         = 34.20
 optimisation between [QCUT,QGAM] = [  9.92, 20.18] = [ 27.55,114.04] Ry 
 Optimized for a Real-space Cutoff    1.26 Angstroem

   l    n(q)    QCUT    max X(q) W(low)/X(q) W(high)/X(q)  e(spline) 
   0      8     9.919    19.460    0.50E-03    0.23E-03    0.29E-06
   0      8     9.919    12.209    0.48E-03    0.23E-03    0.28E-06
   1      7     9.919     4.655    0.17E-03    0.75E-03    0.30E-06
  PAW_PBE Co 02Aug2007                  :
 energy of atom  1       EATOM= -813.3670
 kinetic energy error for atom=    0.0093 (will be added to EATOM!!)
  PAW_PBE C 08Apr2002                   :
 energy of atom  2       EATOM= -147.1560
 kinetic energy error for atom=    0.0288 (will be added to EATOM!!)
  PAW_PBE O 08Apr2002                   :
 energy of atom  3       EATOM= -432.3788
 kinetic energy error for atom=    0.1156 (will be added to EATOM!!)
  PAW_PBE H 15Jun2001                   :
 energy of atom  4       EATOM=  -12.4884
 kinetic energy error for atom=    0.0098 (will be added to EATOM!!)
 
 
 POSCAR: Co C O H                                
  positions in direct lattice
  velocities in cartesian coordinates
 exchange correlation table for  LEXCH =        8
   RHO(1)=    0.500       N(1)  =     2000
   RHO(2)=  100.500       N(2)  =     4000

 VTST: version 3.1, (03/28/14)

 CHAIN: initializing optimizer
 
 OPT: Using Conjugate-Gradient optimizer
 OPT: CG, Init
 OPT: CG, FDSTEP      0.005000
 OPT: CG, MAXMOVE      0.200000
 
 CHAIN: Read ICHAIN            2
 
 POSCAR: Co C O H                                
  positions in direct lattice
  velocities in cartesian coordinates
 CHAIN: Running the Dimer method

 Dimer: -----------------
 Dimer: Input Parameters
 Dimer:   Seed      0
 Dimer: RotMax      1
 Dimer:     dR      0.005000
 Dimer:  FNMax      1.000000
 Dimer:  FNMin      0.010000
 Dimer: -----------------
 


--------------------------------------------------------------------------------------------------------


 ion  position               nearest neighbor table
   1  0.222  0.111  0.000-   4 2.47   5 2.47  13 2.47   3 2.47   2 2.47  10 2.47  11 2.47   9 2.47
                             8 2.47
   2  0.556  0.111  0.000-   5 2.47   6 2.47  14 2.47   3 2.47   1 2.47  12 2.47  11 2.47   9 2.47
                             7 2.47
   3  0.889  0.111  0.000-   4 2.47   6 2.47  15 2.47   1 2.47   2 2.47  10 2.47  12 2.47   8 2.47
                             7 2.47
   4  0.222  0.444  0.000-   9 2.47   7 2.47   3 2.47   1 2.47   6 2.47   5 2.47  16 2.47  15 2.47
                            13 2.47
   5  0.556  0.444  0.000-   7 2.47   8 2.47   1 2.47   2 2.47   4 2.47   6 2.47  17 2.47  14 2.47
                            13 2.47
   6  0.889  0.444  0.000-   9 2.47   8 2.47   2 2.47   3 2.47   4 2.47   5 2.47  18 2.47  15 2.47
                            14 2.47
   7  0.556  0.778  0.000-   5 2.47   4 2.47  16 2.47  17 2.47   8 2.47   9 2.47  12 2.47   3 2.47
                             2 2.47
   8  0.889  0.778  0.000-   5 2.47   6 2.47  17 2.47  18 2.47   7 2.47   9 2.47  10 2.47   3 2.47
                             1 2.47
   9  0.222  0.778  0.000-   4 2.47   6 2.47  18 2.47  16 2.47   7 2.47   8 2.47  11 2.47   2 2.47
                             1 2.47
  10  0.000  0.000  0.082-  26 2.47  15 2.47  13 2.47  12 2.47  11 2.47  18 2.47  17 2.47   3 2.47
                             1 2.47   8 2.47  21 2.50  19 2.50
  11  0.333  0.000  0.082-  14 2.47  13 2.47  12 2.47  10 2.47  16 2.47  18 2.47   2 2.47   1 2.47
                             9 2.47  20 2.48  27 2.50  19 2.50
  12  0.667  0.000  0.082-  14 2.47  15 2.47  11 2.47  10 2.47  16 2.47  17 2.47   2 2.47   3 2.47
                             7 2.47  20 2.48  21 2.49  25 2.49
  13  0.333  0.333  0.082-  10 2.47  11 2.47   1 2.47  14 2.47  15 2.47  16 2.47  17 2.47   5 2.47
                             4 2.47  23 2.49  19 2.49  22 2.51
  14  0.667  0.333  0.082-  11 2.47  12 2.47   2 2.47  13 2.47  15 2.47  17 2.47  18 2.47   5 2.47
                             6 2.47  20 2.48  24 2.50  23 2.50
  15  1.000  0.333  0.082-  10 2.47  12 2.47   3 2.47  13 2.47  14 2.47  18 2.47  16 2.47   4 2.47
                             6 2.47  21 2.48  24 2.49  22 2.51
  16  0.333  0.667  0.082-   7 2.47   9 2.47  17 2.47  18 2.47  13 2.47  15 2.47   4 2.47  12 2.47
                            11 2.47  25 2.48  27 2.50  22 2.51
  17  0.667  0.667  0.082-  26 2.46   8 2.47   7 2.47  16 2.47  18 2.47  14 2.47  13 2.47   5 2.47
                            12 2.47  10 2.47  25 2.50  23 2.50
  18  1.000  0.667  0.082-  26 2.47   9 2.47   8 2.47  17 2.47  16 2.47  15 2.47  14 2.47   6 2.47
                            11 2.47  10 2.47  27 2.50  24 2.50
  19  0.223  0.113  0.165-  28 2.39  29 2.41  23 2.44  22 2.46  20 2.47  21 2.47  31 2.47  26 2.48
                            27 2.48  13 2.49  11 2.50  10 2.50
  20  0.555  0.111  0.164-  30 2.40  32 2.41  29 2.41  25 2.47  21 2.47  27 2.47  24 2.47  19 2.47
                            23 2.47  12 2.48  11 2.48  14 2.48
  21  0.890  0.113  0.164-  30 2.39  28 2.39  33 2.44  24 2.45  22 2.46  20 2.47  19 2.47  26 2.48
                            15 2.48  12 2.49  25 2.49  10 2.50
  22  0.222  0.444  0.165-  23 2.46  21 2.46  19 2.46  25 2.46  33 2.47  34 2.47  24 2.47  27 2.47
                            31 2.50  15 2.51  13 2.51  16 2.51
  23  0.553  0.443  0.165-  35 2.39  32 2.41  19 2.44  22 2.46  20 2.47  25 2.47  31 2.48  26 2.48
                            13 2.49  24 2.49  14 2.50  17 2.50
  24  0.889  0.444  0.165-  36 2.39  32 2.40  33 2.44  21 2.45  22 2.47  20 2.47  27 2.47  26 2.48
                            23 2.49  15 2.49  14 2.50  18 2.50
  25  0.553  0.777  0.164-  30 2.39  35 2.39  34 2.44  27 2.45  22 2.46  20 2.47  23 2.47  26 2.48
                            16 2.48  21 2.49  12 2.49  17 2.50
  26  0.888  0.778  0.163-  28 2.38  35 2.38  36 2.40  17 2.46  10 2.47  18 2.47  24 2.48  25 2.48
                            27 2.48  21 2.48  19 2.48  23 2.48
  27  0.223  0.778  0.165-  36 2.39  29 2.39  34 2.44  25 2.45  20 2.47  22 2.47  24 2.47  26 2.48
                            19 2.48  16 2.50  11 2.50  18 2.50
  28  0.996  0.995  0.241-  26 2.38  19 2.39  21 2.39  35 2.41  36 2.42  30 2.46  29 2.49  33 2.50
                            31 2.50
  29  0.335  0.999  0.243-  27 2.39  20 2.41  19 2.41  34 2.42  31 2.45  30 2.46  32 2.46  36 2.47
                            28 2.49
  30  0.667  1.000  0.242-  25 2.39  21 2.39  20 2.40  33 2.43  34 2.43  32 2.46  29 2.46  28 2.46
                            35 2.47
  31  0.336  0.330  0.247-  44 1.58  40 2.11  38 2.13  29 2.45  32 2.45  19 2.47  23 2.48  22 2.50
                            28 2.50  35 2.51  33 2.54  34 2.54
  32  0.667  0.331  0.243-  24 2.40  20 2.41  23 2.41  33 2.42  31 2.45  30 2.46  29 2.46  36 2.48
                            35 2.49
  33  0.993  0.329  0.245-  40 2.04  32 2.42  30 2.43  21 2.44  24 2.44  22 2.47  28 2.50  36 2.50
                            31 2.54  34 2.55
  34  0.337  0.673  0.245-  40 2.05  29 2.42  30 2.43  25 2.44  27 2.44  22 2.47  35 2.49  36 2.50
                            31 2.54  33 2.55
  35  0.672  0.670  0.241-  26 2.38  23 2.39  25 2.39  28 2.41  36 2.42  30 2.47  32 2.49  34 2.49
                            31 2.51
  36  0.998  0.669  0.242-  27 2.39  24 2.39  26 2.40  28 2.42  35 2.42  29 2.47  32 2.48  33 2.50
                            34 2.50
  37  0.496  0.507  0.364-  42 1.10  41 1.10  43 1.10  38 1.51
  38  0.307  0.355  0.332-  40 1.39  37 1.51  39 1.51  31 2.13
  39  0.151  0.165  0.364-  45 1.10  46 1.10  47 1.10  38 1.51
  40  0.214  0.451  0.305-  38 1.39  33 2.04  34 2.05  31 2.11
  41  0.601  0.642  0.339-  37 1.10
  42  0.582  0.433  0.379-  37 1.10
  43  0.446  0.564  0.399-  37 1.10
  44  0.410  0.251  0.298-  31 1.58
  45  0.222  0.076  0.378-  39 1.10
  46  0.093  0.215  0.398-  39 1.10
  47  0.016  0.063  0.338-  39 1.10
 
  LATTYP: Found a hexagonal cell.
 ALAT       =     7.4100015225
 C/A-ratio  =     3.3333326485
  
  Lattice vectors:
  
 A1 = (   7.4100000000,   0.0000000000,   0.0000000000)
 A2 = (  -3.7050000000,   6.4172500001,   0.0000000000)
 A3 = (   0.0000000000,   0.0000000000,  24.7000000000)


Analysis of symmetry for initial positions (statically):
=====================================================================
 Subroutine PRICEL returns:
 Original cell was already a primitive cell.
 

 Routine SETGRP: Setting up the symmetry group for a 
 hexagonal supercell.


 Subroutine GETGRP returns: Found  1 space group operations
 (whereof  1 operations were pure point group operations)
 out of a pool of 24 trial point group operations.


The static configuration has the point symmetry C_1 .


Analysis of symmetry for dynamics (positions and initial velocities):
=====================================================================
 Subroutine PRICEL returns:
 Original cell was already a primitive cell.
 

 Routine SETGRP: Setting up the symmetry group for a 
 hexagonal supercell.


 Subroutine GETGRP returns: Found  1 space group operations
 (whereof  1 operations were pure point group operations)
 out of a pool of 24 trial point group operations.


The dynamic configuration has the point symmetry C_1 .


Analysis of constrained symmetry for selective dynamics:
=====================================================================
 Subroutine PRICEL returns:
 Original cell was already a primitive cell.
 

 Routine SETGRP: Setting up the symmetry group for a 
 hexagonal supercell.


 Subroutine GETGRP returns: Found  1 space group operations
 (whereof  1 operations were pure point group operations)
 out of a pool of 24 trial point group operations.


The constrained configuration has the point symmetry C_1 .


Analysis of magnetic symmetry:
=====================================================================
 Subroutine PRICEL returns:
 Original cell was already a primitive cell.
 

 Subroutine MAGSYM returns: Found  1 space group operations
 (whereof  1 operations were pure point group operations)
 out of a pool of  1 trial space group operations
 (whereof  1 operations were pure point group operations)
 and found also     1 'primitive' translations


The magnetic configuration has the point symmetry C_1 .
 
 
 KPOINTS:  Automatic mesh                         

Automatic generation of k-mesh.
Space group operators:
 irot       det(A)        alpha          n_x          n_y          n_z        tau_x        tau_y        tau_z
    1     1.000000     0.000000     1.000000     0.000000     0.000000     0.000000     0.000000     0.000000
 
 Subroutine IBZKPT returns following result:
 ===========================================
 
 Found      5 irreducible k-points:
 
 Following reciprocal coordinates:
            Coordinates               Weight
  0.000000  0.000000  0.000000      1.000000
  0.333333  0.000000  0.000000      2.000000
  0.000000  0.333333  0.000000      2.000000
  0.333333  0.333333  0.000000      2.000000
 -0.333333  0.333333  0.000000      2.000000
 
 Following cartesian coordinates:
            Coordinates               Weight
  0.000000  0.000000  0.000000      1.000000
  0.111111  0.064150  0.000000      2.000000
  0.000000  0.128300  0.000000      2.000000
  0.111111  0.192450  0.000000      2.000000
 -0.111111  0.064150  0.000000      2.000000
 


--------------------------------------------------------------------------------------------------------




 Dimension of arrays:
   k-points           NKPTS =      5   k-points in BZ     NKDIM =      5   number of bands    NBANDS=    240
   number of dos      NEDOS =    301   number of ions     NIONS =     47
   non local maximal  LDIM  =      6   non local SUM 2l+1 LMDIM =     18
   total plane-waves  NPLWV = 163296
   max r-space proj   IRMAX =   1582   max aug-charges    IRDMAX=   5682
   dimension x,y,z NGX =    36 NGY =   36 NGZ =  126
   dimension x,y,z NGXF=    72 NGYF=   72 NGZF=  252
   support grid    NGXF=    72 NGYF=   72 NGZF=  252
   ions per type =              36   3   1   7
 NGX,Y,Z   is equivalent  to a cutoff of   8.08,  8.08,  8.48 a.u.
 NGXF,Y,Z  is equivalent  to a cutoff of  16.15, 16.15, 16.96 a.u.


 I would recommend the setting:
   dimension x,y,z NGX =    36 NGY =   36 NGZ =  121
 SYSTEM =  unknown system                          
 POSCAR =  Co C O H                                

 Startparameter for this run:
   NWRITE =      2    write-flag & timer
   PREC   = normal    normal or accurate (medium, high low for compatibility)
   ISTART =      0    job   : 0-new  1-cont  2-samecut
   ICHARG =      2    charge: 1-file 2-atom 10-const
   ISPIN  =      2    spin polarized calculation?
   LNONCOLLINEAR =      F non collinear calculations
   LSORBIT =      F    spin-orbit coupling
   INIWAV =      1    electr: 0-lowe 1-rand  2-diag
   LASPH  =      F    aspherical Exc in radial PAW
   METAGGA=      F    non-selfconsistent MetaGGA calc.
   LSOL =      F    Solvation

 Electronic Relaxation 1
   ENCUT  =  400.0 eV  29.40 Ry    5.42 a.u.  12.08 12.08 40.28*2*pi/ulx,y,z
   ENINI  =  400.0     initial cutoff
   ENAUG  =  644.9 eV  augmentation charge cutoff
   NELM   =     60;   NELMIN=  2; NELMDL= -5     # of ELM steps 
   EDIFF  = 0.1E-05   stopping-criterion for ELM
   LREAL  =      T    real-space projection
   NLSPLINE    = F    spline interpolate recip. space projectors
   LCOMPAT=      F    compatible to vasp.4.4
   GGA_COMPAT  = T    GGA compatible to vasp.4.4-vasp.4.6
   LMAXPAW     = -100 max onsite density
   LMAXMIX     =    2 max onsite mixed and CHGCAR
   VOSKOWN=      0    Vosko Wilk Nusair interpolation
   ROPT   =   -0.00050  -0.00050  -0.00050  -0.00050
 Ionic relaxation
   EDIFFG = -.1E-01   stopping-criterion for IOM
   NSW    =    500    number of steps for IOM
   NBLOCK =      1;   KBLOCK =    500    inner block; outer block 
   IBRION =      3    ionic relax: 0-MD 1-quasi-New 2-CG
   NFREE  =      0    steps in history (QN), initial steepest desc. (CG)
   ISIF   =      2    stress and relaxation
   IWAVPR =     11    prediction:  0-non 1-charg 2-wave 3-comb
   ISYM   =      2    0-nonsym 1-usesym 2-fastsym
   LCORR  =      T    Harris-Foulkes like correction to forces

   POTIM  = 0.0000    time-step for ionic-motion
   TEIN   =    0.0    initial temperature
   TEBEG  =    0.0;   TEEND  =   0.0 temperature during run
   SMASS  =  -3.00    Nose mass-parameter (am)
   estimated Nose-frequenzy (Omega)   =  0.10E-29 period in steps =  0.00 mass=  -0.125E-26a.u.
   SCALEE = 1.0000    scale energy and forces
   NPACO  =    256;   APACO  = 16.0  distance and # of slots for P.C.
   PSTRESS=    0.0 pullay stress

  Mass of Ions in am
   POMASS =  58.93 12.01 16.00  1.00
  Ionic Valenz
   ZVAL   =   9.00  4.00  6.00  1.00
  Atomic Wigner-Seitz radii
   RWIGS  =  -1.00 -1.00 -1.00 -1.00
  virtual crystal weights 
   VCA    =   1.00  1.00  1.00  1.00
   NELECT =     349.0000    total number of electrons
   NUPDOWN=      -1.0000    fix difference up-down

 DOS related values:
   EMIN   =  10.00;   EMAX   =-10.00  energy-range for DOS
   EFERMI =   0.00
   ISMEAR =     2;   SIGMA  =   0.20  broadening in eV -4-tet -1-fermi 0-gaus

 Electronic relaxation 2 (details)
   IALGO  =     38    algorithm
   LDIAG  =      T    sub-space diagonalisation (order eigenvalues)
   LSUBROT=      F    optimize rotation matrix (better conditioning)
   TURBO    =      0    0=normal 1=particle mesh
   IRESTART =      0    0=no restart 2=restart with 2 vectors
   NREBOOT  =      0    no. of reboots
   NMIN     =      0    reboot dimension
   EREF     =   0.00    reference energy to select bands
   IMIX   =      4    mixing-type and parameters
     AMIX     =   0.40;   BMIX     =  1.00
     AMIX_MAG =   1.60;   BMIX_MAG =  1.00
     AMIN     =   0.10
     WC   =   100.;   INIMIX=   1;  MIXPRE=   1;  MAXMIX= -45

 Intra band minimization:
   WEIMIN = 0.0010     energy-eigenvalue tresh-hold
   EBREAK =  0.10E-08  absolut break condition
   DEPER  =   0.30     relativ break condition  

   TIME   =   0.40     timestep for ELM

  volume/ion in A,a.u.               =      24.99       168.64
  Fermi-wavevector in a.u.,A,eV,Ry     =   1.092434  2.064401 16.237361  1.193412
  Thomas-Fermi vector in A             =   2.228700
 
 Write flags
   LWAVE  =      F    write WAVECAR
   LCHARG =      F    write CHGCAR
   LVTOT  =      F    write LOCPOT, total local potential
   LVHAR  =      F    write LOCPOT, Hartree potential only
   LELF   =      F    write electronic localiz. function (ELF)
   LORBIT =      0    0 simple, 1 ext, 2 COOP (PROOUT)


 Dipole corrections
   LMONO  =      F    monopole corrections only (constant potential shift)
   LDIPOL =      F    correct potential (dipole corrections)
   IDIPOL =      3    1-x, 2-y, 3-z, 4-all directions 
   EPSILON=  1.0000000 bulk dielectric constant

 Exchange correlation treatment:
   GGA     =    PE    GGA type
   LEXCH   =     8    internal setting for exchange type
   VOSKOWN=      0    Vosko Wilk Nusair interpolation
   LHFCALC =     F    Hartree Fock is set to
   LHFONE  =     F    Hartree Fock one center treatment
   AEXX    =    0.0000 exact exchange contribution

 Linear response parameters
   LEPSILON=     F    determine dielectric tensor
   LRPA    =     F    only Hartree local field effects (RPA)
   LNABLA  =     F    use nabla operator in PAW spheres
   LVEL    =     F    velocity operator in full k-point grid
   LINTERFAST=   F  fast interpolation
   KINTER  =     0    interpolate to denser k-point grid
   CSHIFT  =0.1000    complex shift for real part using Kramers Kronig
   OMEGAMAX=  -1.0    maximum frequency
   DEG_THRESHOLD= 0.2000000E-02 threshold for treating states as degnerate
   RTIME   =    0.100 relaxation time in fs

 Orbital magnetization related:
   ORBITALMAG=     F  switch on orbital magnetization
   LCHIMAG   =     F  perturbation theory with respect to B field
   DQ        =  0.001000  dq finite difference perturbation B field



--------------------------------------------------------------------------------------------------------


 quickmin algorithm: (dynamic with friction)
   using selective dynamics as specified on POSCAR
 charge density and potential will be updated during run
 spin polarized calculation
 Variant of blocked Davidson
 Davidson routine will perform the subspace rotation
 perform sub-space diagonalisation
    after iterative eigenvector-optimisation
 modified Broyden-mixing scheme, WC =      100.0
 initial mixing is a Kerker type mixing with AMIX =  0.4000 and BMIX =      1.0000
 Hartree-type preconditioning will be used
 using additional bands           65
 real space projection scheme for non local part
 use partial core corrections
 calculate Harris-corrections to forces 
   (improved forces if not selfconsistent)
 use gradient corrections 
 use of overlap-Matrix (Vanderbilt PP)
 Methfessel and Paxton  Order N= 2 SIGMA  =   0.20


--------------------------------------------------------------------------------------------------------


  energy-cutoff  :      400.00
  volume of cell :     1174.53
      direct lattice vectors                 reciprocal lattice vectors
     7.410000000  0.000000000  0.000000000     0.134952767  0.077914995  0.000000000
    -3.705000000  6.417250000  0.000000000     0.000000000  0.155829989  0.000000000
     0.000000000  0.000000000 24.700000000     0.000000000  0.000000000  0.040485830

  length of vectors
     7.410000000  7.410001522 24.700000000     0.155830021  0.155829989  0.040485830


 
 k-points in units of 2pi/SCALE and weight:  Automatic mesh                         
   0.00000000  0.00000000  0.00000000       0.111
   0.11111111  0.06415001  0.00000000       0.222
   0.00000000  0.12830002  0.00000000       0.222
   0.11111111  0.19245004  0.00000000       0.222
  -0.11111111  0.06415001  0.00000000       0.222
 
 k-points in reciprocal lattice and weights:  Automatic mesh                         
   0.00000000  0.00000000  0.00000000       0.111
   0.33333333  0.00000000  0.00000000       0.222
   0.00000000  0.33333333  0.00000000       0.222
   0.33333333  0.33333333  0.00000000       0.222
  -0.33333333  0.33333333  0.00000000       0.222
 
 position of ions in fractional coordinates (direct lattice) 
   0.22222237  0.11111141  0.00000000
   0.55555571  0.11111141  0.00000000
   0.88888904  0.11111141  0.00000000
   0.22222206  0.44444412  0.00000000
   0.55555539  0.44444412  0.00000000
   0.88888872  0.44444412  0.00000000
   0.55555431  0.77777528  0.00000000
   0.88888764  0.77777528  0.00000000
   0.22222097  0.77777528  0.00000000
   0.00000000  0.00000000  0.08164980
   0.33333333  0.00000000  0.08164980
   0.66666667  0.00000000  0.08164980
   0.33333302  0.33333270  0.08164980
   0.66666635  0.33333270  0.08164980
   0.99999968  0.33333270  0.08164980
   0.33333309  0.66666617  0.08164980
   0.66666642  0.66666617  0.08164980
   0.99999975  0.66666617  0.08164980
   0.22328600  0.11309464  0.16452215
   0.55545818  0.11082958  0.16369652
   0.88953860  0.11329554  0.16428254
   0.22202988  0.44426601  0.16521232
   0.55289599  0.44288511  0.16453190
   0.88882895  0.44383805  0.16463392
   0.55314376  0.77695255  0.16431961
   0.88823910  0.77798439  0.16310556
   0.22267090  0.77761418  0.16465637
   0.99649433  0.99457294  0.24130832
   0.33486912  0.99910116  0.24266182
   0.66658010  0.99986627  0.24182799
   0.33565594  0.32988807  0.24737081
   0.66694453  0.33137752  0.24261421
   0.99296595  0.32937778  0.24533934
   0.33718274  0.67318524  0.24542341
   0.67161151  0.66958551  0.24132297
   0.99760356  0.66895247  0.24186732
   0.49585270  0.50723320  0.36432911
   0.30653804  0.35507348  0.33245826
   0.15081489  0.16513998  0.36355782
   0.21377356  0.45137891  0.30492951
   0.60110970  0.64221893  0.33908302
   0.58243154  0.43258699  0.37914755
   0.44562068  0.56425659  0.39923209
   0.40960504  0.25073362  0.29762296
   0.22233197  0.07553183  0.37830660
   0.09320864  0.21491215  0.39842296
   0.01627745  0.06266442  0.33776794
 
 position of ions in cartesian coordinates  (Angst):
   1.23500000  0.71302972  0.00000000
   3.70500000  0.71302972  0.00000000
   6.17500000  0.71302972  0.00000000
  -0.00000000  2.85210900  0.00000000
   2.47000000  2.85210900  0.00000000
   4.94000000  2.85210900  0.00000000
   1.23500000  4.99117840  0.00000000
   3.70500000  4.99117840  0.00000000
  -1.23500000  4.99117840  0.00000000
   0.00000000  0.00000000  2.01675006
   2.47000000  0.00000000  2.01675006
   4.94000000  0.00000000  2.01675006
   1.23500000  2.13907928  2.01675006
   3.70500000  2.13907928  2.01675006
   6.17500000  2.13907928  2.01675006
   0.00000000  4.27816350  2.01675006
   2.47000000  4.27816350  2.01675006
   4.94000000  4.27816350  2.01675006
   1.23553358  0.72575661  4.06369704
   3.70532153  0.71122115  4.04330413
   6.17172103  0.72704579  4.05777878
  -0.00076419  2.85096607  4.08074433
   2.45606994  2.84210447  4.06393801
   4.94180258  2.84821971  4.06645790
   1.22018609  4.98589875  4.05869426
   3.69941953  4.99252033  4.02870728
  -1.23106916  4.99014463  4.06701237
   3.69913023  6.38242317  5.96031541
  -1.22028960  6.41148195  5.99374692
   1.23485400  6.41639183  5.97315145
   1.26497524  2.11697423  6.11005910
   3.71430526  2.12653240  5.99257088
   6.13753304  2.11369957  6.05988178
   0.00437279  4.31999797  6.06195821
   2.49582698  4.29689761  5.96067730
   4.91377346  4.29283521  5.97412269
   1.79496948  3.25504225  8.99892901
   0.95589959  2.27859531  8.21171891
   0.50569468  1.05974453  8.97987813
  -0.08829682  2.89661133  7.53175901
   2.07480171  4.12127944  8.37535069
   2.71308289  2.77601889  9.36494460
   1.21147855  3.62097561  9.86103253
   2.10620526  1.60902033  7.35128714
   1.36763450  0.48470662  9.34417302
  -0.10557349  1.37914502  9.84104704
  -0.11155576  0.40213327  8.34286815
 


--------------------------------------------------------------------------------------------------------


 k-point  1 :   0.0000 0.0000 0.0000  plane waves:   21237
 k-point  2 :   0.3333 0.0000 0.0000  plane waves:   21309
 k-point  3 :   0.0000 0.3333 0.0000  plane waves:   21309
 k-point  4 :   0.3333 0.3333 0.0000  plane waves:   21354
 k-point  5 :  -0.3333 0.3333 0.0000  plane waves:   21309

 maximum and minimum number of plane-waves per node :     21354    21237

 maximum number of plane-waves:     21354
 maximum index in each direction: 
   IXMAX=   12   IYMAX=   12   IZMAX=   40
   IXMIN=  -12   IYMIN=  -12   IZMIN=  -40

 WARNING: aliasing errors must be expected set NGX to  50 to avoid them
 WARNING: aliasing errors must be expected set NGY to  50 to avoid them
 WARNING: aliasing errors must be expected set NGZ to 162 to avoid them
 aliasing errors are usually negligible using standard VASP settings
 and one can safely disregard these warnings

 serial   3D FFT for wavefunctions
 parallel 3D FFT for charge:
    minimum data exchange during FFTs selected (reduces bandwidth)


 total amount of memory used by VASP on root node   182260. kBytes
========================================================================

   base      :      30000. kBytes
   nonlr-proj:       9727. kBytes
   fftplans  :       6203. kBytes
   grid      :      28885. kBytes
   one-center:       1461. kBytes
   wavefun   :     105984. kBytes
 
     INWAV:  cpu time    0.00: real time    0.00
 Broyden mixing: mesh for mixing (old mesh)
   NGX = 25   NGY = 25   NGZ = 81
  (NGX  = 72   NGY  = 72   NGZ  =252)
  gives a total of  50625 points

 initial charge density was supplied:
 charge density of overlapping atoms calculated
 number of electron     349.0000000 magnetization      58.6800000
 keeping initial charge density in first step


--------------------------------------------------------------------------------------------------------


 Maximum index for non-local projection operator         1502
 Maximum index for augmentation-charges          724 (set IRDMAX)


--------------------------------------------------------------------------------------------------------


 First call to EWALD:  gamma=   0.168
 Maximum number of real-space cells 4x 4x 1
 Maximum number of reciprocal cells 2x 2x 6

 FEWALD executed in parallel
    FEWALD:  cpu time    0.00: real time    0.00


----------------------------------------- Iteration    1(   1)  ---------------------------------------


    POTLOK:  cpu time    0.28: real time    0.28
    SETDIJ:  cpu time    0.04: real time    0.04
     EDDAV:  cpu time   24.47: real time   24.49
       DOS:  cpu time    0.00: real time    0.00
    --------------------------------------------
      LOOP:  cpu time   24.80: real time   24.82

 eigenvalue-minimisations  :  4800
 total energy-change (2. order) : 0.2657981E+04  (-0.1283711E+05)
 number of electron     349.0000000 magnetization      58.6800000
 augmentation part      349.0000000 magnetization      58.6800000

 Free energy of the ion-electron system (eV)
  ---------------------------------------------------
  alpha Z        PSCENC =       533.70227597
  Ewald energy   TEWEN  =    168518.67634215
  -Hartree energ DENC   =   -197626.02172007
  -exchange      EXHF   =         0.00000000
  -V(xc)+E(xc)   XCENC  =       690.86225934
  PAW double counting   =     26632.70730083   -28544.49199737
  entropy T*S    EENTRO =        -0.01259037
  eigenvalues    EBANDS =      2210.68528181
  atomic energy  EATOM  =     30241.87372392
  Solvation contrib.  Ediel  =         0.00000000
  ---------------------------------------------------
  free energy    TOTEN  =      2657.98087621 eV

  energy without entropy =     2657.99346658  energy(sigma->0) =     2657.98402380


--------------------------------------------------------------------------------------------------------




----------------------------------------- Iteration    1(   2)  ---------------------------------------


     EDDAV:  cpu time   24.60: real time   24.60
       DOS:  cpu time    0.00: real time    0.00
    --------------------------------------------
      LOOP:  cpu time   24.60: real time   24.60

 eigenvalue-minimisations  :  4800
 total energy-change (2. order) :-0.2670221E+04  (-0.2499646E+04)
 number of electron     349.0000000 magnetization      58.6800000
 augmentation part      349.0000000 magnetization      58.6800000

 Free energy of the ion-electron system (eV)
  ---------------------------------------------------
  alpha Z        PSCENC =       533.70227597
  Ewald energy   TEWEN  =    168518.67634215
  -Hartree energ DENC   =   -197626.02172007
  -exchange      EXHF   =         0.00000000
  -V(xc)+E(xc)   XCENC  =       690.86225934
  PAW double counting   =     26632.70730083   -28544.49199737
  entropy T*S    EENTRO =         0.00938021
  eigenvalues    EBANDS =      -459.55754270
  atomic energy  EATOM  =     30241.87372392
  Solvation contrib.  Ediel  =         0.00000000
  ---------------------------------------------------
  free energy    TOTEN  =       -12.23997772 eV

  energy without entropy =      -12.24935793  energy(sigma->0) =      -12.24232277


--------------------------------------------------------------------------------------------------------




----------------------------------------- Iteration    1(   3)  ---------------------------------------


     EDDAV:  cpu time   29.50: real time   29.50
       DOS:  cpu time    0.00: real time    0.00
    --------------------------------------------
      LOOP:  cpu time   29.50: real time   29.50

 eigenvalue-minimisations  :  6024
 total energy-change (2. order) :-0.3042629E+03  (-0.2694603E+03)
 number of electron     349.0000000 magnetization      58.6800000
 augmentation part      349.0000000 magnetization      58.6800000

 Free energy of the ion-electron system (eV)
  ---------------------------------------------------
  alpha Z        PSCENC =       533.70227597
  Ewald energy   TEWEN  =    168518.67634215
  -Hartree energ DENC   =   -197626.02172007
  -exchange      EXHF   =         0.00000000
  -V(xc)+E(xc)   XCENC  =       690.86225934
  PAW double counting   =     26632.70730083   -28544.49199737
  entropy T*S    EENTRO =         0.09596409
  eigenvalues    EBANDS =      -763.90698156
  atomic energy  EATOM  =     30241.87372392
  Solvation contrib.  Ediel  =         0.00000000
  ---------------------------------------------------
  free energy    TOTEN  =      -316.50283270 eV

  energy without entropy =     -316.59879679  energy(sigma->0) =     -316.52682372


--------------------------------------------------------------------------------------------------------




----------------------------------------- Iteration    1(   4)  ---------------------------------------


     EDDAV:  cpu time   26.36: real time   26.36
       DOS:  cpu time    0.00: real time    0.00
    --------------------------------------------
      LOOP:  cpu time   26.36: real time   26.36

 eigenvalue-minimisations  :  5768
 total energy-change (2. order) :-0.2509011E+02  (-0.2395684E+02)
 number of electron     349.0000000 magnetization      58.6800000
 augmentation part      349.0000000 magnetization      58.6800000

 Free energy of the ion-electron system (eV)
  ---------------------------------------------------
  alpha Z        PSCENC =       533.70227597
  Ewald energy   TEWEN  =    168518.67634215
  -Hartree energ DENC   =   -197626.02172007
  -exchange      EXHF   =         0.00000000
  -V(xc)+E(xc)   XCENC  =       690.86225934
  PAW double counting   =     26632.70730083   -28544.49199737
  entropy T*S    EENTRO =         0.09227374
  eigenvalues    EBANDS =      -788.99339787
  atomic energy  EATOM  =     30241.87372392
  Solvation contrib.  Ediel  =         0.00000000
  ---------------------------------------------------
  free energy    TOTEN  =      -341.59293937 eV

  energy without entropy =     -341.68521311  energy(sigma->0) =     -341.61600780


--------------------------------------------------------------------------------------------------------




----------------------------------------- Iteration    1(   5)  ---------------------------------------


     EDDAV:  cpu time   29.01: real time   29.01
       DOS:  cpu time    0.00: real time    0.00
    CHARGE:  cpu time    1.05: real time    1.05
    MIXING:  cpu time    0.01: real time    0.01
    --------------------------------------------
      LOOP:  cpu time   30.08: real time   30.08

 eigenvalue-minimisations  :  6112
 total energy-change (2. order) :-0.9123514E+00  (-0.9054222E+00)
 number of electron     348.9998861 magnetization      58.3541235
 augmentation part      166.5810704 magnetization      46.2243461

 Broyden mixing:
  rms(total) = 0.64885E+01    rms(broyden)= 0.64883E+01
  rms(prec ) = 0.67482E+01
  weight for this iteration     100.00

 Free energy of the ion-electron system (eV)
  ---------------------------------------------------
  alpha Z        PSCENC =       533.70227597
  Ewald energy   TEWEN  =    168518.67634215
  -Hartree energ DENC   =   -197626.02172007
  -exchange      EXHF   =         0.00000000
  -V(xc)+E(xc)   XCENC  =       690.86225934
  PAW double counting   =     26632.70730083   -28544.49199737
  entropy T*S    EENTRO =         0.09174881
  eigenvalues    EBANDS =      -789.90522432
  atomic energy  EATOM  =     30241.87372392
  Solvation contrib.  Ediel  =         0.00000000
  ---------------------------------------------------
  free energy    TOTEN  =      -342.50529074 eV

  energy without entropy =     -342.59703955  energy(sigma->0) =     -342.52822794


--------------------------------------------------------------------------------------------------------




----------------------------------------- Iteration    1(   6)  ---------------------------------------


    POTLOK:  cpu time    0.31: real time    0.31
    SETDIJ:  cpu time    0.04: real time    0.05
     EDDAV:  cpu time   29.00: real time   28.99
       DOS:  cpu time    0.00: real time    0.00
    CHARGE:  cpu time    1.03: real time    1.03
    MIXING:  cpu time    0.01: real time    0.01
    --------------------------------------------
      LOOP:  cpu time   30.38: real time   30.38

 eigenvalue-minimisations  :  6088
 total energy-change (2. order) :-0.6470924E+02  (-0.3791829E+02)
 number of electron     348.9998330 magnetization      57.8246947
 augmentation part      190.0487090 magnetization      51.4296431

 Broyden mixing:
  rms(total) = 0.12875E+02    rms(broyden)= 0.12874E+02
  rms(prec ) = 0.14253E+02
  weight for this iteration     100.00

 eigenvalues of (default mixing * dielectric matrix)
  average eigenvalue GAMMA=   0.2333
  0.2333

 Free energy of the ion-electron system (eV)
  ---------------------------------------------------
  alpha Z        PSCENC =       533.70227597
  Ewald energy   TEWEN  =    168518.67634215
  -Hartree energ DENC   =   -197220.16856949
  -exchange      EXHF   =         0.00000000
  -V(xc)+E(xc)   XCENC  =       665.63452747
  PAW double counting   =     29430.45672864   -31153.66743020
  entropy T*S    EENTRO =         0.00508314
  eigenvalues    EBANDS =     -1423.72721467
  atomic energy  EATOM  =     30241.87372392
  Solvation contrib.  Ediel  =         0.00000000
  ---------------------------------------------------
  free energy    TOTEN  =      -407.21453307 eV

  energy without entropy =     -407.21961620  energy(sigma->0) =     -407.21580385


--------------------------------------------------------------------------------------------------------




----------------------------------------- Iteration    1(   7)  ---------------------------------------


    POTLOK:  cpu time    0.31: real time    0.31
    SETDIJ:  cpu time    0.05: real time    0.05
     EDDAV:  cpu time   24.35: real time   24.35
       DOS:  cpu time    0.00: real time    0.00
    CHARGE:  cpu time    0.96: real time    0.96
    MIXING:  cpu time    0.00: real time    0.01
    --------------------------------------------
      LOOP:  cpu time   25.68: real time   25.68

 eigenvalue-minimisations  :  5360
 total energy-change (2. order) : 0.4959762E+02  (-0.2476495E+02)
 number of electron     348.9998871 magnetization      56.9548320
 augmentation part      195.7387240 magnetization      47.5274540

 Broyden mixing:
  rms(total) = 0.97366E+01    rms(broyden)= 0.97362E+01
  rms(prec ) = 0.11174E+02
  weight for this iteration     100.00

 eigenvalues of (default mixing * dielectric matrix)
  average eigenvalue GAMMA=   0.3245
  0.5191  0.1299

 Free energy of the ion-electron system (eV)
  ---------------------------------------------------
  alpha Z        PSCENC =       533.70227597
  Ewald energy   TEWEN  =    168518.67634215
  -Hartree energ DENC   =   -196983.31820333
  -exchange      EXHF   =         0.00000000
  -V(xc)+E(xc)   XCENC  =       664.46490524
  PAW double counting   =     29970.71801594   -31723.58288511
  entropy T*S    EENTRO =         0.00733834
  eigenvalues    EBANDS =     -1580.15842992
  atomic energy  EATOM  =     30241.87372392
  Solvation contrib.  Ediel  =         0.00000000
  ---------------------------------------------------
  free energy    TOTEN  =      -357.61691681 eV

  energy without entropy =     -357.62425515  energy(sigma->0) =     -357.61875139


--------------------------------------------------------------------------------------------------------




----------------------------------------- Iteration    1(   8)  ---------------------------------------


    POTLOK:  cpu time    0.30: real time    0.30
    SETDIJ:  cpu time    0.05: real time    0.05
     EDDAV:  cpu time   27.50: real time   27.50
       DOS:  cpu time    0.00: real time    0.00
    CHARGE:  cpu time    0.99: real time    0.99
    MIXING:  cpu time    0.01: real time    0.01
    --------------------------------------------
      LOOP:  cpu time   28.84: real time   28.84

 eigenvalue-minimisations  :  5984
 total energy-change (2. order) : 0.4245852E+01  (-0.1053165E+02)
 number of electron     348.9998311 magnetization      56.5223964
 augmentation part      189.3084517 magnetization      50.0750521

 Broyden mixing:
  rms(total) = 0.96718E+01    rms(broyden)= 0.96716E+01
  rms(prec ) = 0.11970E+02
  weight for this iteration     100.00

 eigenvalues of (default mixing * dielectric matrix)
  average eigenvalue GAMMA=   0.2988
  0.5051  0.2786  0.1127

 Free energy of the ion-electron system (eV)
  ---------------------------------------------------
  alpha Z        PSCENC =       533.70227597
  Ewald energy   TEWEN  =    168518.67634215
  -Hartree energ DENC   =   -197424.47573344
  -exchange      EXHF   =         0.00000000
  -V(xc)+E(xc)   XCENC  =       667.18677309
  PAW double counting   =     31253.41425449   -33091.33393664
  entropy T*S    EENTRO =        -0.02165160
  eigenvalues    EBANDS =     -1052.39311305
  atomic energy  EATOM  =     30241.87372392
  Solvation contrib.  Ediel  =         0.00000000
  ---------------------------------------------------
  free energy    TOTEN  =      -353.37106510 eV

  energy without entropy =     -353.34941350  energy(sigma->0) =     -353.36565220


--------------------------------------------------------------------------------------------------------




----------------------------------------- Iteration    1(   9)  ---------------------------------------


    POTLOK:  cpu time    0.29: real time    0.29
    SETDIJ:  cpu time    0.05: real time    0.05
     EDDAV:  cpu time   30.07: real time   30.07
       DOS:  cpu time    0.00: real time    0.00
    CHARGE:  cpu time    1.00: real time    1.00
    MIXING:  cpu time    0.01: real time    0.01
    --------------------------------------------
      LOOP:  cpu time   31.42: real time   31.42

 eigenvalue-minimisations  :  7048
 total energy-change (2. order) : 0.1690530E+02  (-0.6240377E+01)
 number of electron     348.9998683 magnetization      55.8863295
 augmentation part      185.9753089 magnetization      47.0376957

 Broyden mixing:
  rms(total) = 0.76819E+01    rms(broyden)= 0.76815E+01
  rms(prec ) = 0.10124E+02
  weight for this iteration     100.00

 eigenvalues of (default mixing * dielectric matrix)
  average eigenvalue GAMMA=   0.3318
  0.5638  0.5638  0.1150  0.0847

 Free energy of the ion-electron system (eV)
  ---------------------------------------------------
  alpha Z        PSCENC =       533.70227597
  Ewald energy   TEWEN  =    168518.67634215
  -Hartree energ DENC   =   -197457.94090518
  -exchange      EXHF   =         0.00000000
  -V(xc)+E(xc)   XCENC  =       667.94723867
  PAW double counting   =     31584.49830898   -33441.78492733
  entropy T*S    EENTRO =         0.01637685
  eigenvalues    EBANDS =      -983.45420264
  atomic energy  EATOM  =     30241.87372392
  Solvation contrib.  Ediel  =         0.00000000
  ---------------------------------------------------
  free energy    TOTEN  =      -336.46576861 eV

  energy without entropy =     -336.48214545  energy(sigma->0) =     -336.46986282


--------------------------------------------------------------------------------------------------------




----------------------------------------- Iteration    1(  10)  ---------------------------------------


    POTLOK:  cpu time    0.29: real time    0.29
    SETDIJ:  cpu time    0.05: real time    0.05
     EDDAV:  cpu time   25.46: real time   25.46
       DOS:  cpu time    0.00: real time    0.00
    CHARGE:  cpu time    0.98: real time    0.98
    MIXING:  cpu time    0.01: real time    0.01
    --------------------------------------------
      LOOP:  cpu time   26.78: real time   26.78

 eigenvalue-minimisations  :  5752
 total energy-change (2. order) :-0.4506113E+02  (-0.7631470E+01)
 number of electron     348.9998605 magnetization      54.5402893
 augmentation part      186.8404597 magnetization      46.4195333

 Broyden mixing:
  rms(total) = 0.11699E+02    rms(broyden)= 0.11699E+02
  rms(prec ) = 0.14647E+02
  weight for this iteration     100.00

 eigenvalues of (default mixing * dielectric matrix)
  average eigenvalue GAMMA=   0.3676
  0.7702  0.7702  0.1167  0.1167  0.0644

 Free energy of the ion-electron system (eV)
  ---------------------------------------------------
  alpha Z        PSCENC =       533.70227597
  Ewald energy   TEWEN  =    168518.67634215
  -Hartree energ DENC   =   -197475.49009053
  -exchange      EXHF   =         0.00000000
  -V(xc)+E(xc)   XCENC  =       668.81793552
  PAW double counting   =     31981.23892155   -33854.80823570
  entropy T*S    EENTRO =        -0.00024288
  eigenvalues    EBANDS =      -995.53752639
  atomic energy  EATOM  =     30241.87372392
  Solvation contrib.  Ediel  =         0.00000000
  ---------------------------------------------------
  free energy    TOTEN  =      -381.52689640 eV

  energy without entropy =     -381.52665352  energy(sigma->0) =     -381.52683568


--------------------------------------------------------------------------------------------------------




----------------------------------------- Iteration    1(  11)  ---------------------------------------


    POTLOK:  cpu time    0.30: real time    0.30
    SETDIJ:  cpu time    0.04: real time    0.05
     EDDAV:  cpu time   24.33: real time   24.33
       DOS:  cpu time    0.00: real time    0.00
    CHARGE:  cpu time    0.98: real time    0.98
    MIXING:  cpu time    0.01: real time    0.01
    --------------------------------------------
      LOOP:  cpu time   25.67: real time   25.67

 eigenvalue-minimisations  :  5552
 total energy-change (2. order) : 0.6361934E+02  (-0.4910960E+01)
 number of electron     348.9998769 magnetization      54.2536427
 augmentation part      186.9028381 magnetization      42.6433001

 Broyden mixing:
  rms(total) = 0.73170E+01    rms(broyden)= 0.73167E+01
  rms(prec ) = 0.83847E+01
  weight for this iteration     100.00

 eigenvalues of (default mixing * dielectric matrix)
  average eigenvalue GAMMA=   0.3319
  0.7836  0.7836  0.1251  0.1251  0.1163  0.0580

 Free energy of the ion-electron system (eV)
  ---------------------------------------------------
  alpha Z        PSCENC =       533.70227597
  Ewald energy   TEWEN  =    168518.67634215
  -Hartree energ DENC   =   -197456.40615815
  -exchange      EXHF   =         0.00000000
  -V(xc)+E(xc)   XCENC  =       671.41264148
  PAW double counting   =     32657.18325383   -34555.67026212
  entropy T*S    EENTRO =        -0.03945450
  eigenvalues    EBANDS =      -928.63991516
  atomic energy  EATOM  =     30241.87372392
  Solvation contrib.  Ediel  =         0.00000000
  ---------------------------------------------------
  free energy    TOTEN  =      -317.90755257 eV

  energy without entropy =     -317.86809807  energy(sigma->0) =     -317.89768895


--------------------------------------------------------------------------------------------------------




----------------------------------------- Iteration    1(  12)  ---------------------------------------


    POTLOK:  cpu time    0.29: real time    0.29
    SETDIJ:  cpu time    0.05: real time    0.05
     EDDAV:  cpu time   23.70: real time   23.70
       DOS:  cpu time    0.00: real time    0.00
    CHARGE:  cpu time    0.97: real time    0.97
    MIXING:  cpu time    0.01: real time    0.01
    --------------------------------------------
      LOOP:  cpu time   25.02: real time   25.02

 eigenvalue-minimisations  :  5392
 total energy-change (2. order) : 0.2589933E+02  (-0.2419854E+01)
 number of electron     348.9998737 magnetization      54.1679758
 augmentation part      185.8879714 magnetization      41.2111688

 Broyden mixing:
  rms(total) = 0.36153E+01    rms(broyden)= 0.36150E+01
  rms(prec ) = 0.39830E+01
  weight for this iteration     100.00

 eigenvalues of (default mixing * dielectric matrix)
  average eigenvalue GAMMA=   0.3317
  1.0527  0.4268  0.4268  0.1301  0.1301  0.0949  0.0601

 Free energy of the ion-electron system (eV)
  ---------------------------------------------------
  alpha Z        PSCENC =       533.70227597
  Ewald energy   TEWEN  =    168518.67634215
  -Hartree energ DENC   =   -197472.22104094
  -exchange      EXHF   =         0.00000000
  -V(xc)+E(xc)   XCENC  =       672.50924270
  PAW double counting   =     32841.04101267   -34745.74468372
  entropy T*S    EENTRO =        -0.03790274
  eigenvalues    EBANDS =      -881.80719715
  atomic energy  EATOM  =     30241.87372392
  Solvation contrib.  Ediel  =         0.00000000
  ---------------------------------------------------
  free energy    TOTEN  =      -292.00822714 eV

  energy without entropy =     -291.97032440  energy(sigma->0) =     -291.99875146


--------------------------------------------------------------------------------------------------------




----------------------------------------- Iteration    1(  13)  ---------------------------------------


    POTLOK:  cpu time    0.29: real time    0.29
    SETDIJ:  cpu time    0.04: real time    0.05
     EDDAV:  cpu time   23.44: real time   23.44
       DOS:  cpu time    0.00: real time    0.00
    CHARGE:  cpu time    0.97: real time    0.97
    MIXING:  cpu time    0.01: real time    0.01
    --------------------------------------------
      LOOP:  cpu time   24.76: real time   24.76

 eigenvalue-minimisations  :  5336
 total energy-change (2. order) :-0.1932924E+01  (-0.1202794E+01)
 number of electron     348.9998715 magnetization      54.2165200
 augmentation part      185.0296906 magnetization      42.2810097

 Broyden mixing:
  rms(total) = 0.31337E+01    rms(broyden)= 0.31336E+01
  rms(prec ) = 0.35014E+01
  weight for this iteration     100.00

 eigenvalues of (default mixing * dielectric matrix)
  average eigenvalue GAMMA=   0.3324
  1.1365  0.4004  0.3611  0.3611  0.1235  0.1235  0.0938  0.0592

 Free energy of the ion-electron system (eV)
  ---------------------------------------------------
  alpha Z        PSCENC =       533.70227597
  Ewald energy   TEWEN  =    168518.67634215
  -Hartree energ DENC   =   -197530.09313829
  -exchange      EXHF   =         0.00000000
  -V(xc)+E(xc)   XCENC  =       672.98140281
  PAW double counting   =     33154.17170464   -35066.34704955
  entropy T*S    EENTRO =         0.00624134
  eigenvalues    EBANDS =      -818.91265422
  atomic energy  EATOM  =     30241.87372392
  Solvation contrib.  Ediel  =         0.00000000
  ---------------------------------------------------
  free energy    TOTEN  =      -293.94115122 eV

  energy without entropy =     -293.94739256  energy(sigma->0) =     -293.94271156


--------------------------------------------------------------------------------------------------------




----------------------------------------- Iteration    1(  14)  ---------------------------------------


    POTLOK:  cpu time    0.29: real time    0.29
    SETDIJ:  cpu time    0.04: real time    0.05
     EDDAV:  cpu time   23.48: real time   23.48
       DOS:  cpu time    0.00: real time    0.00
    CHARGE:  cpu time    1.04: real time    1.05
    MIXING:  cpu time    0.01: real time    0.01
    --------------------------------------------
      LOOP:  cpu time   24.88: real time   24.88

 eigenvalue-minimisations  :  5160
 total energy-change (2. order) :-0.2958239E+00  (-0.8892194E+00)
 number of electron     348.9998711 magnetization      54.3620647
 augmentation part      184.9224750 magnetization      42.9080093

 Broyden mixing:
  rms(total) = 0.27974E+01    rms(broyden)= 0.27973E+01
  rms(prec ) = 0.30407E+01
  weight for this iteration     100.00

 eigenvalues of (default mixing * dielectric matrix)
  average eigenvalue GAMMA=   0.3698
  1.2432  0.5450  0.5450  0.4749  0.0594  0.1274  0.1274  0.0965  0.1093

 Free energy of the ion-electron system (eV)
  ---------------------------------------------------
  alpha Z        PSCENC =       533.70227597
  Ewald energy   TEWEN  =    168518.67634215
  -Hartree energ DENC   =   -197544.33517914
  -exchange      EXHF   =         0.00000000
  -V(xc)+E(xc)   XCENC  =       673.57512276
  PAW double counting   =     33252.42185768   -35165.57391895
  entropy T*S    EENTRO =         0.03184127
  eigenvalues    EBANDS =      -804.60904080
  atomic energy  EATOM  =     30241.87372392
  Solvation contrib.  Ediel  =         0.00000000
  ---------------------------------------------------
  free energy    TOTEN  =      -294.23697514 eV

  energy without entropy =     -294.26881641  energy(sigma->0) =     -294.24493546


--------------------------------------------------------------------------------------------------------




----------------------------------------- Iteration    1(  15)  ---------------------------------------


    POTLOK:  cpu time    0.31: real time    0.31
    SETDIJ:  cpu time    0.04: real time    0.05
     EDDAV:  cpu time   26.92: real time   26.92
       DOS:  cpu time    0.00: real time    0.00
    CHARGE:  cpu time    1.03: real time    1.03
    MIXING:  cpu time    0.01: real time    0.01
    --------------------------------------------
      LOOP:  cpu time   28.32: real time   28.31

 eigenvalue-minimisations  :  5696
 total energy-change (2. order) :-0.3290481E+00  (-0.4327060E+00)
 number of electron     348.9998702 magnetization      54.4367763
 augmentation part      184.8195661 magnetization      44.2178333

 Broyden mixing:
  rms(total) = 0.18690E+01    rms(broyden)= 0.18689E+01
  rms(prec ) = 0.20052E+01
  weight for this iteration     100.00

 eigenvalues of (default mixing * dielectric matrix)
  average eigenvalue GAMMA=   0.3743
  1.2997  0.6111  0.6111  0.4110  0.2857  0.0594  0.1259  0.1259  0.0940  0.1192

 Free energy of the ion-electron system (eV)
  ---------------------------------------------------
  alpha Z        PSCENC =       533.70227597
  Ewald energy   TEWEN  =    168518.67634215
  -Hartree energ DENC   =   -197551.38357018
  -exchange      EXHF   =         0.00000000
  -V(xc)+E(xc)   XCENC  =       673.38289150
  PAW double counting   =     33417.60066770   -35330.44509388
  entropy T*S    EENTRO =        -0.01012648
  eigenvalues    EBANDS =      -797.96313397
  atomic energy  EATOM  =     30241.87372392
  Solvation contrib.  Ediel  =         0.00000000
  ---------------------------------------------------
  free energy    TOTEN  =      -294.56602326 eV

  energy without entropy =     -294.55589679  energy(sigma->0) =     -294.56349164


--------------------------------------------------------------------------------------------------------




----------------------------------------- Iteration    1(  16)  ---------------------------------------


    POTLOK:  cpu time    0.31: real time    0.31
    SETDIJ:  cpu time    0.04: real time    0.05
     EDDAV:  cpu time   23.10: real time   23.10
       DOS:  cpu time    0.00: real time    0.00
    CHARGE:  cpu time    0.99: real time    0.99
    MIXING:  cpu time    0.01: real time    0.01
    --------------------------------------------
      LOOP:  cpu time   24.46: real time   24.46

 eigenvalue-minimisations  :  5192
 total energy-change (2. order) :-0.1237128E+01  (-0.3390041E+00)
 number of electron     348.9998702 magnetization      54.5594982
 augmentation part      185.0340700 magnetization      44.7144590

 Broyden mixing:
  rms(total) = 0.19117E+01    rms(broyden)= 0.19116E+01
  rms(prec ) = 0.20323E+01
  weight for this iteration     100.00

 eigenvalues of (default mixing * dielectric matrix)
  average eigenvalue GAMMA=   0.4125
  1.4082  0.7547  0.7547  0.4847  0.4847  0.0594  0.1318  0.1318  0.0947  0.1162
  0.1162

 Free energy of the ion-electron system (eV)
  ---------------------------------------------------
  alpha Z        PSCENC =       533.70227597
  Ewald energy   TEWEN  =    168518.67634215
  -Hartree energ DENC   =   -197552.84071164
  -exchange      EXHF   =         0.00000000
  -V(xc)+E(xc)   XCENC  =       673.17662195
  PAW double counting   =     33499.99081562   -35411.84718086
  entropy T*S    EENTRO =         0.00938431
  eigenvalues    EBANDS =      -798.54442300
  atomic energy  EATOM  =     30241.87372392
  Solvation contrib.  Ediel  =         0.00000000
  ---------------------------------------------------
  free energy    TOTEN  =      -295.80315157 eV

  energy without entropy =     -295.81253589  energy(sigma->0) =     -295.80549765


--------------------------------------------------------------------------------------------------------




----------------------------------------- Iteration    1(  17)  ---------------------------------------


    POTLOK:  cpu time    0.29: real time    0.29
    SETDIJ:  cpu time    0.05: real time    0.05
     EDDAV:  cpu time   22.80: real time   22.80
       DOS:  cpu time    0.00: real time    0.00
    CHARGE:  cpu time    1.00: real time    1.00
    MIXING:  cpu time    0.01: real time    0.01
    --------------------------------------------
      LOOP:  cpu time   24.15: real time   24.15

 eigenvalue-minimisations  :  5032
 total energy-change (2. order) :-0.1766248E+01  (-0.3076139E+00)
 number of electron     348.9998716 magnetization      54.6962523
 augmentation part      185.5540265 magnetization      45.7153746

 Broyden mixing:
  rms(total) = 0.16636E+01    rms(broyden)= 0.16636E+01
  rms(prec ) = 0.18423E+01
  weight for this iteration     100.00

 eigenvalues of (default mixing * dielectric matrix)
  average eigenvalue GAMMA=   0.4267
  1.4586  0.8690  0.8690  0.4651  0.4651  0.3414  0.0594  0.1372  0.1256  0.1256
  0.0947  0.1098

 Free energy of the ion-electron system (eV)
  ---------------------------------------------------
  alpha Z        PSCENC =       533.70227597
  Ewald energy   TEWEN  =    168518.67634215
  -Hartree energ DENC   =   -197551.92488666
  -exchange      EXHF   =         0.00000000
  -V(xc)+E(xc)   XCENC  =       672.78863851
  PAW double counting   =     33670.19303524   -35580.31161325
  entropy T*S    EENTRO =         0.01129177
  eigenvalues    EBANDS =      -802.57820764
  atomic energy  EATOM  =     30241.87372392
  Solvation contrib.  Ediel  =         0.00000000
  ---------------------------------------------------
  free energy    TOTEN  =      -297.56940000 eV

  energy without entropy =     -297.58069176  energy(sigma->0) =     -297.57222294


--------------------------------------------------------------------------------------------------------




----------------------------------------- Iteration    1(  18)  ---------------------------------------


    POTLOK:  cpu time    0.29: real time    0.29
    SETDIJ:  cpu time    0.04: real time    0.05
     EDDAV:  cpu time   23.06: real time   23.06
       DOS:  cpu time    0.00: real time    0.00
    CHARGE:  cpu time    0.97: real time    0.97
    MIXING:  cpu time    0.01: real time    0.01
    --------------------------------------------
      LOOP:  cpu time   24.39: real time   24.39

 eigenvalue-minimisations  :  5272
 total energy-change (2. order) :-0.1281615E+01  (-0.2291781E+00)
 number of electron     348.9998717 magnetization      55.0193942
 augmentation part      185.7875775 magnetization      46.7435649

 Broyden mixing:
  rms(total) = 0.17947E+01    rms(broyden)= 0.17947E+01
  rms(prec ) = 0.19987E+01
  weight for this iteration     100.00

 eigenvalues of (default mixing * dielectric matrix)
  average eigenvalue GAMMA=   0.4564
  1.5632  0.9962  0.9962  0.5435  0.5435  0.5181  0.0594  0.1284  0.1284  0.1337
  0.0946  0.1137  0.1137

 Free energy of the ion-electron system (eV)
  ---------------------------------------------------
  alpha Z        PSCENC =       533.70227597
  Ewald energy   TEWEN  =    168518.67634215
  -Hartree energ DENC   =   -197556.91922045
  -exchange      EXHF   =         0.00000000
  -V(xc)+E(xc)   XCENC  =       672.98307202
  PAW double counting   =     33744.68424112   -35653.69717461
  entropy T*S    EENTRO =        -0.00034062
  eigenvalues    EBANDS =      -800.15393428
  atomic energy  EATOM  =     30241.87372392
  Solvation contrib.  Ediel  =         0.00000000
  ---------------------------------------------------
  free energy    TOTEN  =      -298.85101478 eV

  energy without entropy =     -298.85067416  energy(sigma->0) =     -298.85092963


--------------------------------------------------------------------------------------------------------




----------------------------------------- Iteration    1(  19)  ---------------------------------------


    POTLOK:  cpu time    0.29: real time    0.29
    SETDIJ:  cpu time    0.05: real time    0.05
     EDDAV:  cpu time   26.02: real time   26.02
       DOS:  cpu time    0.00: real time    0.00
    CHARGE:  cpu time    1.06: real time    1.06
    MIXING:  cpu time    0.02: real time    0.01
    --------------------------------------------
      LOOP:  cpu time   27.44: real time   27.43

 eigenvalue-minimisations  :  5616
 total energy-change (2. order) :-0.5006784E+00  (-0.3069103E+00)
 number of electron     348.9998689 magnetization      55.2072327
 augmentation part      186.0716217 magnetization      48.1334468

 Broyden mixing:
  rms(total) = 0.89149E+00    rms(broyden)= 0.89145E+00
  rms(prec ) = 0.98965E+00
  weight for this iteration     100.00

 eigenvalues of (default mixing * dielectric matrix)
  average eigenvalue GAMMA=   0.4622
  1.5414  1.0518  1.0518  0.5679  0.5679  0.5096  0.4018  0.0594  0.0947  0.1394
  0.1256  0.1256  0.1102  0.1239

 Free energy of the ion-electron system (eV)
  ---------------------------------------------------
  alpha Z        PSCENC =       533.70227597
  Ewald energy   TEWEN  =    168518.67634215
  -Hartree energ DENC   =   -197579.14880723
  -exchange      EXHF   =         0.00000000
  -V(xc)+E(xc)   XCENC  =       673.85024814
  PAW double counting   =     33854.24424196   -35761.77361750
  entropy T*S    EENTRO =        -0.00425370
  eigenvalues    EBANDS =      -780.77184694
  atomic energy  EATOM  =     30241.87372392
  Solvation contrib.  Ediel  =         0.00000000
  ---------------------------------------------------
  free energy    TOTEN  =      -299.35169322 eV

  energy without entropy =     -299.34743952  energy(sigma->0) =     -299.35062980


--------------------------------------------------------------------------------------------------------




----------------------------------------- Iteration    1(  20)  ---------------------------------------


    POTLOK:  cpu time    0.31: real time    0.31
    SETDIJ:  cpu time    0.05: real time    0.05
     EDDAV:  cpu time   25.98: real time   25.99
       DOS:  cpu time    0.00: real time    0.00
    CHARGE:  cpu time    1.03: real time    1.03
    MIXING:  cpu time    0.02: real time    0.02
    --------------------------------------------
      LOOP:  cpu time   27.39: real time   27.39

 eigenvalue-minimisations  :  5600
 total energy-change (2. order) :-0.4384411E+00  (-0.1220770E+00)
 number of electron     348.9998667 magnetization      55.3430516
 augmentation part      186.1517346 magnetization      48.6910067

 Broyden mixing:
  rms(total) = 0.97084E+00    rms(broyden)= 0.97079E+00
  rms(prec ) = 0.10389E+01
  weight for this iteration     100.00

[...]
     33     Co          0.048          0.047          0.946
     34     Co          0.045          0.048          0.955
     35     Co          0.003          0.013          0.960
     36     Co          0.001          0.006          1.008
     37     C          -0.132         -0.114          0.840
     38     C           0.097          0.069          0.637
     39     C          -0.134         -0.114          0.841
     40     O          -0.204         -0.163          1.004
     41     H           0.033          0.021          0.831
     42     H           0.067          0.050          0.737
     43     H           0.062          0.049          0.719
     44     H          -0.060         -0.047          0.769
     45     H           0.068          0.050          0.744
     46     H           0.063          0.049          0.720
     47     H           0.033          0.020          0.835

  dDsC method for vdW energy calculation
  ---------------------------------------------------------------------------------------------

  Parameters of vdW forcefield:
            C6dDsC            XDM            ALPHAts        RELVOL
            (au)              (au)            (au)                
   ---------------------------------------------------------------
   Co        436.080         10.247         50.861          1.017
   Co        450.013         10.330         52.060          1.041
   Co        435.412         10.237         50.828          1.017
   Co        425.582         10.187         49.925          0.999
   Co        429.958         10.211         50.322          1.006
   Co        420.085         10.143         49.495          0.990
   Co        431.321         10.212         50.474          1.009
   Co        431.857         10.211         50.541          1.011
   Co        433.353         10.224         50.654          1.013
   Co        292.271          7.649         45.661          0.913
   Co        287.240          7.641         44.928          0.899
   Co        284.337          7.630         44.532          0.891
   Co        286.922          7.645         44.853          0.897
   Co        288.166          7.643         45.058          0.901
   Co        289.817          7.653         45.255          0.905
   Co        288.758          7.651         45.105          0.902
   Co        287.105          7.638         44.919          0.898
   Co        289.266          7.644         45.224          0.904
   Co        282.879          7.574         44.631          0.893
   Co        281.580          7.539         44.638          0.893
   Co        285.120          7.557         45.089          0.902
   Co        284.778          7.635         44.576          0.892
   Co        286.851          7.584         45.199          0.904
   Co        280.999          7.555         44.450          0.889
   Co        282.271          7.552         44.669          0.893
   Co        284.353          7.537         45.089          0.902
   Co        284.982          7.564         45.028          0.901
   Co        387.371          9.511         48.673          0.973
   Co        406.127          9.830         49.372          0.987
   Co        417.823         10.074         49.565          0.991
   Co        298.290          8.140         43.795          0.876
   Co        413.089          9.880         49.968          0.999
   Co        374.741          9.469         47.294          0.946
   Co        379.144          9.493         47.728          0.955
   Co        381.308          9.498         47.979          0.960
   Co        428.942         10.175         50.379          1.008
   C          47.244          5.604         10.074          0.840
   C          28.859          4.513          7.642          0.637
   C          47.386          5.610         10.094          0.841
   O          27.234          6.005          5.420          1.004
   H           7.591          2.425          3.740          0.831
   H           5.124          1.847          3.314          0.737
   H           4.589          1.696          3.233          0.719
   H           6.812          2.351          3.462          0.769
   H           5.222          1.865          3.346          0.744
   H           4.608          1.699          3.241          0.720
   H           7.645          2.433          3.756          0.835

  IVDW =   4
  VDW_RADIUS =    50.000 A
  VDW_S6 aka ATT0 =    13.960
  VDW_SR aka BTT0 =     1.320
  LVDW_ONECELL = F F F

  Number of pair interactions contributing to vdW energy:  493893
  Edisp (eV):   -9.00799
    FORVDW:  cpu time   17.29: real time   17.29

  FORCE on cell =-STRESS in cart. coord.  units (eV):
  Direction    XX          YY          ZZ          XY          YZ          ZX
  --------------------------------------------------------------------------------------
  Alpha Z   533.70228   533.70228   533.70228
  Ewald  186717.18893186795.40158************    65.97210   -99.53512   172.99731
  Hartree193856.11852193931.44266************    64.76115   -57.49408   100.49583
  E(xc)   -1757.97110 -1758.07811 -1759.64009    -0.10311    -0.13216     0.22025
  Local  ************************387846.32568  -141.30649   152.05657  -265.31739
  n-local  -238.37283  -238.87192  -261.07352    -0.42527    -0.11378     0.20827
  augment  5609.89330  5611.64317  5604.13783     1.59928     0.53835    -0.80040
  Kinetic  3109.68474  3120.24263  3126.41211     9.60405     4.64838    -7.59815
  Fock        0.00000     0.00000     0.00000     0.00000     0.00000     0.00000
  vdW       -10.94600   -11.07195    -7.68750    -0.11017     0.01775    -0.03216
  -------------------------------------------------------------------------------------
  Total     -17.69039   -17.71519   -11.26987    -0.00846    -0.01409     0.17355
  in kB     -24.13147   -24.16531   -15.37324    -0.01154    -0.01922     0.23675
  external pressure =      -21.22 kB  Pullay stress =        0.00 kB


 VOLUME and BASIS-vectors are now :
 -----------------------------------------------------------------------------
  energy-cutoff  :      400.00
  volume of cell :     1174.53
      direct lattice vectors                 reciprocal lattice vectors
     7.410000000  0.000000000  0.000000000     0.134952767  0.077914995  0.000000000
    -3.705000000  6.417250000  0.000000000     0.000000000  0.155829989  0.000000000
     0.000000000  0.000000000 24.700000000     0.000000000  0.000000000  0.040485830

  length of vectors
     7.410000000  7.410001522 24.700000000     0.155830021  0.155829989  0.040485830


 FORCES acting on ions
    electron-ion (+dipol)            ewald-force                    non-local-force                 convergence-correction
 -----------------------------------------------------------------------------------------------
   0.604E-01 -.104E+00 0.293E+04   -.265E-01 0.928E-01 -.293E+04   -.302E-01 0.293E-01 -.115E+01   -.103E-02 -.925E-03 0.929E-02
   0.125E-01 -.540E-02 0.293E+04   -.366E-01 0.175E-01 -.293E+04   0.296E-01 -.163E-01 -.112E+01   0.139E-02 0.156E-03 0.915E-02
   -.712E-01 -.287E+00 0.293E+04   0.623E-01 0.288E+00 -.293E+04   0.403E-02 0.275E-02 -.117E+01   -.375E-03 -.177E-02 0.103E-01
   0.142E+00 -.100E+00 0.293E+04   -.158E+00 0.109E+00 -.293E+04   0.284E-01 -.166E-01 -.113E+01   0.948E-05 0.298E-03 0.817E-02
   0.122E+00 -.143E-01 0.293E+04   -.970E-01 -.898E-02 -.293E+04   -.398E-01 0.107E-01 -.115E+01   0.112E-02 0.164E-02 0.939E-02
   -.257E+00 -.102E+00 0.293E+04   0.256E+00 0.116E+00 -.293E+04   -.506E-02 -.302E-01 -.117E+01   -.114E-02 0.116E-03 0.907E-02
   0.218E+00 0.221E+00 0.293E+04   -.223E+00 -.213E+00 -.293E+04   -.116E-02 -.452E-02 -.117E+01   0.176E-02 0.677E-03 0.977E-02
   -.158E+00 0.103E+00 0.293E+04   0.182E+00 -.117E+00 -.293E+04   -.195E-01 0.113E-01 -.118E+01   -.134E-02 -.157E-05 0.110E-01
   -.559E-01 0.280E+00 0.293E+04   0.425E-01 -.285E+00 -.293E+04   0.244E-01 0.180E-01 -.117E+01   -.411E-03 -.179E-03 0.849E-02
   -.791E+00 -.237E+01 0.114E+04   0.782E+00 0.237E+01 -.114E+04   0.121E-01 0.432E-01 -.475E+00   -.288E-02 -.304E-02 0.165E-01
   0.167E+01 0.188E+01 0.114E+04   -.171E+01 -.190E+01 -.114E+04   -.159E-01 0.113E-01 -.415E+00   -.224E-03 -.534E-03 0.150E-01
   -.102E+01 0.705E+00 0.114E+04   0.105E+01 -.723E+00 -.114E+04   0.579E-02 -.356E-02 -.456E+00   0.311E-02 -.103E-02 0.164E-01
   0.198E+01 -.123E+01 0.114E+04   -.200E+01 0.124E+01 -.114E+04   -.204E-01 0.103E-01 -.316E+00   0.395E-03 0.463E-03 0.151E-01
   -.686E+00 -.246E+01 0.114E+04   0.687E+00 0.250E+01 -.114E+04   -.182E-01 0.701E-02 -.415E+00   0.128E-02 0.168E-02 0.160E-01
   -.100E+01 -.283E+01 0.114E+04   0.102E+01 0.289E+01 -.114E+04   0.285E-01 -.495E-02 -.404E+00   -.168E-02 -.214E-02 0.170E-01
   0.181E+01 0.229E+01 0.114E+04   -.186E+01 -.233E+01 -.114E+04   0.186E-01 -.229E-01 -.403E+00   0.188E-02 0.126E-02 0.164E-01
   0.180E+01 0.202E+01 0.114E+04   -.181E+01 -.201E+01 -.114E+04   -.324E-01 -.331E-01 -.476E+00   0.185E-02 0.295E-02 0.167E-01
   -.333E+01 0.194E+01 0.114E+04   0.336E+01 -.196E+01 -.114E+04   0.977E-02 -.370E-02 -.553E+00   -.372E-02 0.389E-03 0.171E-01
   -.225E+01 0.591E+01 -.650E+03   0.226E+01 -.560E+01 0.650E+03   -.101E-01 -.311E+00 0.448E-01   -.263E-02 -.201E-02 0.121E-01
   -.670E+00 0.853E-01 -.644E+03   0.599E+00 -.437E-01 0.643E+03   0.685E-01 -.431E-01 0.520E+00   0.265E-02 0.409E-03 0.111E-01
   0.326E+01 0.168E+01 -.649E+03   -.323E+01 -.146E+01 0.648E+03   -.333E-01 -.224E+00 0.302E+00   0.102E-04 -.293E-02 0.846E-02
   0.531E+01 -.369E+01 -.661E+03   -.511E+01 0.358E+01 0.661E+03   -.204E+00 0.113E+00 -.133E-01   -.518E-03 0.781E-03 0.102E-01
   -.650E+01 -.157E+01 -.651E+03   0.624E+01 0.141E+01 0.651E+03   0.260E+00 0.156E+00 0.477E-01   0.208E-02 0.347E-02 0.114E-01
   0.808E+00 -.401E+01 -.661E+03   -.636E+00 0.390E+01 0.661E+03   -.171E+00 0.114E+00 0.218E+00   -.156E-02 0.994E-03 0.921E-02
   0.106E+00 -.303E+01 -.650E+03   -.281E+00 0.288E+01 0.649E+03   0.170E+00 0.146E+00 0.312E+00   0.312E-02 0.650E-03 0.943E-02
   -.440E+01 0.305E+01 -.625E+03   0.443E+01 -.306E+01 0.624E+03   -.238E-01 0.106E-01 0.643E+00   -.190E-02 -.161E-05 0.959E-02
   0.344E+01 0.196E+01 -.661E+03   -.325E+01 -.205E+01 0.661E+03   -.188E+00 0.903E-01 0.216E+00   -.122E-02 -.128E-02 0.110E-01
   0.116E+02 0.485E+02 -.246E+04   -.118E+02 -.490E+02 0.246E+04   0.202E+00 0.524E+00 0.200E+01   0.841E-03 -.231E-02 0.263E-02
   -.236E+02 0.369E+02 -.251E+04   0.237E+02 -.379E+02 0.251E+04   -.126E+00 0.967E+00 0.177E+01   -.102E-02 0.101E-02 0.506E-02
   0.103E+02 -.502E+01 -.253E+04   -.103E+02 0.498E+01 0.253E+04   -.478E-01 0.339E-01 0.100E+01   0.286E-04 -.114E-02 0.207E-02
   -.678E+02 0.362E+02 -.234E+04   0.699E+02 -.374E+02 0.233E+04   -.207E+01 0.114E+01 0.526E+01   0.227E-02 -.879E-03 0.411E-02
   -.426E+02 0.677E+00 -.251E+04   0.436E+02 -.286E+00 0.251E+04   -.894E+00 -.395E+00 0.178E+01   -.231E-02 0.400E-03 0.327E-02
   0.118E+03 0.365E+02 -.245E+04   -.121E+03 -.380E+02 0.244E+04   0.222E+01 0.141E+01 0.261E+01   -.311E-04 -.876E-03 0.150E-02
   0.257E+02 -.120E+03 -.245E+04   -.256E+02 0.123E+03 0.245E+04   -.130E+00 -.266E+01 0.264E+01   0.121E-02 0.114E-02 0.248E-02
   -.351E+02 -.327E+02 -.246E+04   0.354E+02 0.331E+02 0.246E+04   -.346E+00 -.410E+00 0.193E+01   0.155E-02 0.461E-03 0.174E-02
   0.835E+01 -.397E+01 -.252E+04   -.871E+01 0.417E+01 0.252E+04   0.357E+00 -.206E+00 0.164E+01   -.291E-02 0.214E-02 0.175E-02
   -.828E+02 -.769E+02 -.135E+04   0.835E+02 0.779E+02 0.135E+04   -.629E+00 -.920E+00 0.279E-01   0.328E-03 0.113E-03 -.150E-02
   -.729E+02 0.427E+02 -.139E+04   0.774E+02 -.454E+02 0.140E+04   -.450E+01 0.266E+01 -.463E+01   0.528E-03 -.227E-03 -.116E-02
   0.272E+02 0.110E+03 -.135E+04   -.277E+02 -.111E+03 0.135E+04   0.482E+00 0.988E+00 0.335E-01   0.161E-03 -.423E-03 -.148E-02
   0.178E+03 -.106E+03 -.208E+04   -.206E+03 0.122E+03 0.208E+04   0.281E+02 -.166E+02 0.431E+00   0.169E-02 0.240E-03 0.281E-03
   -.243E+02 -.521E+02 -.322E+03   0.257E+02 0.564E+02 0.319E+03   -.139E+01 -.432E+01 0.299E+01   0.543E-04 -.101E-04 -.223E-03
   -.577E+02 0.151E+02 -.335E+03   0.624E+02 -.174E+02 0.337E+03   -.468E+01 0.235E+01 -.185E+01   0.527E-04 -.103E-04 -.487E-03
   0.199E+02 -.311E+02 -.344E+03   -.227E+02 0.330E+02 0.349E+03   0.283E+01 -.186E+01 -.424E+01   0.158E-04 0.584E-04 -.581E-03
   -.415E+02 0.242E+02 -.356E+03   0.427E+02 -.249E+02 0.357E+03   -.119E+01 0.700E+00 -.896E+00   0.219E-04 -.489E-04 -.404E-03
   -.411E+02 0.434E+02 -.336E+03   0.454E+02 -.464E+02 0.338E+03   -.432E+01 0.298E+01 -.184E+01   0.428E-04 -.547E-04 -.497E-03
   0.373E+02 -.152E+01 -.345E+03   -.404E+02 0.302E+01 0.349E+03   0.304E+01 -.151E+01 -.424E+01   -.299E-04 -.475E-04 -.564E-03
   0.336E+02 0.462E+02 -.323E+03   -.367E+02 -.495E+02 0.320E+03   0.307E+01 0.326E+01 0.303E+01   0.848E-04 -.978E-04 -.243E-03
 -----------------------------------------------------------------------------------------------
   -.198E+02 0.118E+02 0.245E+01   -.128E-12 -.277E-12 -.398E-11   0.198E+02 -.118E+02 -.259E+01   0.259E-02 -.457E-03 0.341E+00
 
 
 POSITION                                       TOTAL-FORCE (eV/Angst)
 -----------------------------------------------------------------------------------
      1.23500      0.71303      0.00000         0.003602      0.016974      0.446859
      3.70500      0.71303      0.00000         0.007790     -0.003769      0.438614
      6.17500      0.71303      0.00000        -0.004371      0.001400      0.436731
     -0.00000      2.85211      0.00000         0.012932     -0.006732      0.456992
      2.47000      2.85211      0.00000        -0.013198     -0.010645      0.446700
      4.94000      2.85211      0.00000        -0.006044     -0.015680      0.445598
      1.23500      4.99118      0.00000        -0.002852      0.003859      0.436518
      3.70500      4.99118      0.00000         0.004514     -0.002610      0.451921
     -1.23500      4.99118      0.00000         0.011382      0.013297      0.446255
      0.00000      0.00000      2.01675         0.002103      0.039909     -0.461181
      2.47000      0.00000      2.01675        -0.051352     -0.014003     -0.408132
      4.94000      0.00000      2.01675         0.037360     -0.023020     -0.494488
      1.23500      2.13908      2.01675        -0.035442      0.018187     -0.465554
      3.70500      2.13908      2.01675        -0.014750      0.050619     -0.406278
      6.17500      2.13908      2.01675         0.040451      0.051921     -0.396124
      0.00000      4.27816      2.01675        -0.023303     -0.061531     -0.394950
      2.47000      4.27816      2.01675        -0.036027     -0.023874     -0.459112
      4.94000      4.27816      2.01675         0.038701     -0.021467     -0.481992
      1.23553      0.72576      4.06370        -0.002657     -0.003219     -0.001232
      3.70532      0.71122      4.04330        -0.000258     -0.000169     -0.001335
      6.17172      0.72705      4.05778         0.003415     -0.000025     -0.002967
     -0.00076      2.85097      4.08074         0.001686     -0.001543     -0.001171
      2.45607      2.84210      4.06394         0.002149      0.004122      0.002908
      4.94180      2.84822      4.06646        -0.000204     -0.000280      0.000808
      1.22019      4.98590      4.05869        -0.001018     -0.002788     -0.002932
      3.69942      4.99252      4.02871         0.000047     -0.003210     -0.002766
     -1.23107      4.99014      4.06701        -0.003278     -0.005512     -0.000452
      3.69913      6.38242      5.96032         0.004003     -0.006611     -0.000012
     -1.22029      6.41148      5.99375         0.002009     -0.000889      0.000562
      1.23485      6.41639      5.97315         0.000887     -0.003325      0.002210
      1.26498      2.11697      6.11006         0.008171     -0.001969     -0.001435
      3.71431      2.12653      5.99257        -0.001083      0.000639     -0.004179
      6.13753      2.11370      6.05988         0.000999      0.000815     -0.002063
      0.00437      4.32000      6.06196        -0.002313     -0.002817     -0.002351
      2.49583      4.29690      5.96068        -0.001264      0.001474     -0.001130
      4.91377      4.29284      5.97412        -0.002291     -0.001628      0.003583
      1.79497      3.25504      8.99893         0.007787      0.005818      0.005070
      0.95590      2.27860      8.21172        -0.008805      0.000550     -0.002479
      0.50569      1.05974      8.97988         0.006456     -0.006216     -0.001055
     -0.08830      2.89661      7.53176        -0.000929      0.001641     -0.001958
      2.07480      4.12128      8.37535        -0.000547      0.000885     -0.003896
      2.71308      2.77602      9.36494        -0.000386      0.002840     -0.006588
      1.21148      3.62098      9.86103         0.001657      0.000167     -0.007725
      2.10621      1.60902      7.35129         0.010188     -0.002464      0.003196
      1.36763      0.48471      9.34417        -0.001368      0.003525     -0.005249
     -0.10557      1.37915      9.84105         0.001694      0.003081     -0.003830
     -0.11156      0.40213      8.34287         0.003757      0.004275      0.000095
 -----------------------------------------------------------------------------------
    total drift:                               -0.049582     -0.004542      0.206682


--------------------------------------------------------------------------------------------------------



  FREE ENERGIE OF THE ION-ELECTRON SYSTEM (eV)
  ---------------------------------------------------
  free  energy   TOTEN  =      -309.36751329 eV

  energy  without entropy=     -309.38349350  energy(sigma->0) =     -309.37150834
 


--------------------------------------------------------------------------------------------------------


    POTLOK:  cpu time    0.36: real time    0.36


--------------------------------------------------------------------------------------------------------


 Dimer: Init Mode:
 Dimer: MODECAR found
 Dimer: -----------------
 Dimer: Itr    1 Rot    0

 Dimer: Central Point
 Dimer: F0      0.032000

 Dimer: Projection
 Dimer: N*F0 -2.007119185790190E-003
 Dimer: F0sq  1.023982234579922E-003
 Dimer: Feffsq   4.028527425967074E-006
 
 stress matrix after NEB project (eV)
    -17.69039     -0.00846      0.17355
     -0.00846    -17.71519     -0.01409
      0.17355     -0.01409    -11.26987
  FORCES: max atom, RMS     0.010963    0.004668
  FORCE total and by dimension    0.032000    0.010188
  Stress total and by dimension   27.456305   17.715191
 OPT: skip step - force has converged


--------------------------------------------------------------------------------------------------------


  
 reached required accuracy - stopping structural energy minimisation
     LOOP+:  cpu time 1597.90: real time 1597.94
    4ORBIT:  cpu time    0.00: real time    0.00

 total amount of memory used by VASP on root node   182260. kBytes
========================================================================

   base      :      30000. kBytes
   nonlr-proj:       9727. kBytes
   fftplans  :       6203. kBytes
   grid      :      28885. kBytes
   one-center:       1461. kBytes
   wavefun   :     105984. kBytes
 
  
  
 General timing and accounting informations for this job:
 ========================================================
  
                  Total CPU time used (sec):     1604.140
                            User time (sec):     1603.028
                          System time (sec):        1.112
                         Elapsed time (sec):     1605.147
  
                   Maximum memory used (kb):      226624.
                   Average memory used (kb):           0.
  
                          Minor page faults:       260785
                          Major page faults:            0
                 Voluntary context switches:          363
