 vasp.5.3.5 31Mar14 (build Jan 31 2018 16:04:57) complex                        
  
 executed on             LinuxIFC date 2018.12.29  18:06:23
 running on    8 total cores
 distrk:  each k-point on    8 cores,    1 groups
 distr:  one band on NCORES_PER_BAND=   1 cores,    8 groups


--------------------------------------------------------------------------------------------------------


 INCAR:
 POTCAR:    PAW_PBE Co 02Aug2007                  
 POTCAR:    PAW_PBE C 08Apr2002                   
 POTCAR:    PAW_PBE O 08Apr2002                   
 POTCAR:    PAW_PBE H 15Jun2001                   

 ----------------------------------------------------------------------------- 
|                                                                             |
|           W    W    AA    RRRRR   N    N  II  N    N   GGGG   !!!           |
|           W    W   A  A   R    R  NN   N  II  NN   N  G    G  !!!           |
|           W    W  A    A  R    R  N N  N  II  N N  N  G       !!!           |
|           W WW W  AAAAAA  RRRRR   N  N N  II  N  N N  G  GGG   !            |
|           WW  WW  A    A  R   R   N   NN  II  N   NN  G    G                |
|           W    W  A    A  R    R  N    N  II  N    N   GGGG   !!!           |
|                                                                             |
|      For optimal performance we recommend to set                            |
|        NCORE= 4 - approx SQRT( number of cores)                             |
|      NCORE specifies how many cores store one orbital (NPAR=cpu/NCORE).     |
|      This setting can  greatly improve the performance of VASP for DFT.     |
|      The default, NPAR=number of cores might be grossly inefficient         |
|      on modern multi-core architectures or massively parallel machines.     |
|      Do your own testing !!!!                                               |
|      Unfortunately you need to use the default for GW and RPA calculations. |
|      (for HF NCORE is supported but not extensively tested yet)             |
|                                                                             |
 ----------------------------------------------------------------------------- 

 POTCAR:    PAW_PBE Co 02Aug2007                  
   VRHFIN =Co: d8 s1                                                            
   LEXCH  = PE                                                                  
   EATOM  =   813.3670 eV,   59.7808 Ry                                         
                                                                                
   TITEL  = PAW_PBE Co 02Aug2007                                                
   LULTRA =        F    use ultrasoft PP ?                                      
   IUNSCR =        1    unscreen: 0-lin 1-nonlin 2-no                           
   RPACOR =    2.000    partial core radius                                     
   POMASS =   58.933; ZVAL   =    9.000    mass and valenz                      
   RCORE  =    2.300    outmost cutoff radius                                   
   RWIGS  =    2.460; RWIGS  =    1.302    wigner-seitz radius (au A)           
   ENMAX  =  267.968; ENMIN  =  200.976 eV                                      
   RCLOC  =    1.203    cutoff for local pot                                    
   LCOR   =        T    correct aug charges                                     
   LPAW   =        T    paw PP                                                  
   EAUG   =  477.818                                                            
   DEXC   =    0.000                                                            
   RMAX   =    2.360    core radius for proj-oper                               
   RAUG   =    1.300    factor for augmentation sphere                          
   RDEP   =    2.393    radius for radial grids                                 
   RDEPT  =    1.864    core radius for aug-charge                              
                                                                                
   Atomic configuration                                                         
    9 entries                                                                   
     n  l   j            E        occ.                                          
     1  0  0.50     -7587.6674   2.0000                                         
     2  0  0.50      -893.6084   2.0000                                         
     2  1  1.50      -764.5805   6.0000                                         
     3  0  0.50       -97.5973   2.0000                                         
     3  1  1.50       -60.9648   6.0000                                         
     3  2  2.50        -4.2382   8.0000                                         
     4  0  0.50        -4.3746   1.0000                                         
     4  1  1.50        -4.0817   0.0000                                         
     4  3  2.50        -1.3606   0.0000                                         
   Description                                                                  
     l       E           TYP  RCUT    TYP  RCUT                                 
     2     -4.2382362     23  2.300                                             
     2     -5.5988188     23  2.300                                             
     0     -4.3745797     23  2.300                                             
     0      5.7660125     23  2.300                                             
     1     -2.7211652     23  2.300                                             
     1     16.9860234     23  2.300                                             
  local pseudopotential read in
  partial core-charges read in
  partial kinetic energy density read in
  atomic valenz-charges read in
  non local Contribution for L=           2  read in
    real space projection operators read in
  non local Contribution for L=           2  read in
    real space projection operators read in
  non local Contribution for L=           0  read in
    real space projection operators read in
  non local Contribution for L=           0  read in
    real space projection operators read in
  non local Contribution for L=           1  read in
    real space projection operators read in
  non local Contribution for L=           1  read in
    real space projection operators read in
    PAW grid and wavefunctions read in
 
   number of l-projection  operators is LMAX  =           6
   number of lm-projection operators is LMMAX =          18
 
 POTCAR:    PAW_PBE C 08Apr2002                   
   VRHFIN =C: s2p2                                                              
   LEXCH  = PE                                                                  
   EATOM  =   147.1560 eV,   10.8157 Ry                                         
                                                                                
   TITEL  = PAW_PBE C 08Apr2002                                                 
   LULTRA =        F    use ultrasoft PP ?                                      
   IUNSCR =        1    unscreen: 0-lin 1-nonlin 2-no                           
   RPACOR =    1.200    partial core radius                                     
   POMASS =   12.011; ZVAL   =    4.000    mass and valenz                      
   RCORE  =    1.500    outmost cutoff radius                                   
   RWIGS  =    1.630; RWIGS  =    0.863    wigner-seitz radius (au A)           
   ENMAX  =  400.000; ENMIN  =  300.000 eV                                      
   ICORE  =        2    local potential                                         
   LCOR   =        T    correct aug charges                                     
   LPAW   =        T    paw PP                                                  
   EAUG   =  644.873                                                            
   DEXC   =    0.000                                                            
   RMAX   =    1.529    core radius for proj-oper                               
   RAUG   =    1.300    factor for augmentation sphere                          
   RDEP   =    1.501    radius for radial grids                                 
   RDEPT  =    1.300    core radius for aug-charge                              
                                                                                
   Atomic configuration                                                         
    4 entries                                                                   
     n  l   j            E        occ.                                          
     1  0  0.50      -273.3789   2.0000                                         
     2  0  0.50       -13.7508   2.0000                                         
     2  1  0.50        -5.2854   2.0000                                         
     3  2  1.50        -5.4423   0.0000                                         
   Description                                                                  
     l       E           TYP  RCUT    TYP  RCUT                                 
     0    -13.7508458     23  1.200                                             
     0     -8.2022199     23  1.200                                             
     1     -5.2854383     23  1.500                                             
     1     34.0145650     23  1.500                                             
     2     -5.4423304      7  1.500                                             
  local pseudopotential read in
  partial core-charges read in
  partial kinetic energy density read in
  atomic valenz-charges read in
  non local Contribution for L=           0  read in
    real space projection operators read in
  non local Contribution for L=           0  read in
    real space projection operators read in
  non local Contribution for L=           1  read in
    real space projection operators read in
  non local Contribution for L=           1  read in
    real space projection operators read in
    PAW grid and wavefunctions read in
 
   number of l-projection  operators is LMAX  =           4
   number of lm-projection operators is LMMAX =           8
 
 POTCAR:    PAW_PBE O 08Apr2002                   
   VRHFIN =O: s2p4                                                              
   LEXCH  = PE                                                                  
   EATOM  =   432.3788 eV,   31.7789 Ry                                         
                                                                                
   TITEL  = PAW_PBE O 08Apr2002                                                 
   LULTRA =        F    use ultrasoft PP ?                                      
   IUNSCR =        1    unscreen: 0-lin 1-nonlin 2-no                           
   RPACOR =    1.200    partial core radius                                     
   POMASS =   16.000; ZVAL   =    6.000    mass and valenz                      
   RCORE  =    1.520    outmost cutoff radius                                   
   RWIGS  =    1.550; RWIGS  =    0.820    wigner-seitz radius (au A)           
   ENMAX  =  400.000; ENMIN  =  300.000 eV                                      
   ICORE  =        2    local potential                                         
   LCOR   =        T    correct aug charges                                     
   LPAW   =        T    paw PP                                                  
   EAUG   =  605.392                                                            
   DEXC   =    0.000                                                            
   RMAX   =    1.553    core radius for proj-oper                               
   RAUG   =    1.300    factor for augmentation sphere                          
   RDEP   =    1.550    radius for radial grids                                 
   RDEPT  =    1.329    core radius for aug-charge                              
                                                                                
   Atomic configuration                                                         
    4 entries                                                                   
     n  l   j            E        occ.                                          
     1  0  0.50      -514.6923   2.0000                                         
     2  0  0.50       -23.9615   2.0000                                         
     2  1  0.50        -9.0305   4.0000                                         
     3  2  1.50        -9.5241   0.0000                                         
   Description                                                                  
     l       E           TYP  RCUT    TYP  RCUT                                 
     0    -23.9615318     23  1.200                                             
     0     -9.5240782     23  1.200                                             
     1     -9.0304911     23  1.520                                             
     1      8.1634956     23  1.520                                             
     2     -9.5240782      7  1.500                                             
  local pseudopotential read in
  partial core-charges read in
  partial kinetic energy density read in
  kinetic energy density of atom read in
  atomic valenz-charges read in
  non local Contribution for L=           0  read in
    real space projection operators read in
  non local Contribution for L=           0  read in
    real space projection operators read in
  non local Contribution for L=           1  read in
    real space projection operators read in
  non local Contribution for L=           1  read in
    real space projection operators read in
    PAW grid and wavefunctions read in
 
   number of l-projection  operators is LMAX  =           4
   number of lm-projection operators is LMMAX =           8
 
 POTCAR:    PAW_PBE H 15Jun2001                   
   VRHFIN =H: ultrasoft test                                                    
   LEXCH  = PE                                                                  
   EATOM  =    12.4884 eV,    0.9179 Ry                                         
                                                                                
   TITEL  = PAW_PBE H 15Jun2001                                                 
   LULTRA =        F    use ultrasoft PP ?                                      
   IUNSCR =        0    unscreen: 0-lin 1-nonlin 2-no                           
   RPACOR =    0.000    partial core radius                                     
   POMASS =    1.000; ZVAL   =    1.000    mass and valenz                      
   RCORE  =    1.100    outmost cutoff radius                                   
   RWIGS  =    0.700; RWIGS  =    0.370    wigner-seitz radius (au A)           
   ENMAX  =  250.000; ENMIN  =  200.000 eV                                      
   RCLOC  =    0.701    cutoff for local pot                                    
   LCOR   =        T    correct aug charges                                     
   LPAW   =        T    paw PP                                                  
   EAUG   =  400.000                                                            
   RMAX   =    1.123    core radius for proj-oper                               
   RAUG   =    1.200    factor for augmentation sphere                          
   RDEP   =    1.112    radius for radial grids                                 
   RDEPT  =    0.926    core radius for aug-charge                              
                                                                                
   Atomic configuration                                                         
    2 entries                                                                   
     n  l   j            E        occ.                                          
     1  0  0.50        -6.4927   1.0000                                         
     2  1  0.50        -3.4015   0.0000                                         
   Description                                                                  
     l       E           TYP  RCUT    TYP  RCUT                                 
     0     -6.4927494     23  1.100                                             
     0      6.8029130     23  1.100                                             
     1     -4.0817478     23  1.100                                             
  local pseudopotential read in
  atomic valenz-charges read in
  non local Contribution for L=           0  read in
    real space projection operators read in
  non local Contribution for L=           0  read in
    real space projection operators read in
  non local Contribution for L=           1  read in
    real space projection operators read in
    PAW grid and wavefunctions read in
 
   number of l-projection  operators is LMAX  =           3
   number of lm-projection operators is LMMAX =           5
 
 Optimization of the real space projectors (new method)

 maximal supplied QI-value         = 16.25
 optimisation between [QCUT,QGAM] = [ 10.24, 20.48] = [ 29.35,117.42] Ry 
 Optimized for a Real-space Cutoff    1.34 Angstroem

   l    n(q)    QCUT    max X(q) W(low)/X(q) W(high)/X(q)  e(spline) 
   2      7    10.239    65.824    0.41E-03    0.10E-02    0.11E-06
   2      7    10.239    61.429    0.41E-03    0.10E-02    0.11E-06
   0      8    10.239    56.174    0.42E-03    0.17E-03    0.96E-07
   0      8    10.239    31.263    0.38E-03    0.16E-03    0.87E-07
   1      8    10.239    19.828    0.20E-03    0.56E-03    0.13E-06
   1      8    10.239    15.139    0.15E-03    0.46E-03    0.11E-06
 Optimization of the real space projectors (new method)

 maximal supplied QI-value         = 25.13
 optimisation between [QCUT,QGAM] = [ 10.05, 20.36] = [ 28.30,116.06] Ry 
 Optimized for a Real-space Cutoff    1.30 Angstroem

   l    n(q)    QCUT    max X(q) W(low)/X(q) W(high)/X(q)  e(spline) 
   0      8    10.053   115.676    0.49E-03    0.72E-03    0.18E-06
   0      8    10.053    87.132    0.49E-03    0.71E-03    0.18E-06
   1      7    10.053     4.429    0.32E-03    0.31E-03    0.18E-06
   1      7    10.053     2.733    0.23E-03    0.19E-03    0.20E-06
 Optimization of the real space projectors (new method)

 maximal supplied QI-value         = 24.76
 optimisation between [QCUT,QGAM] = [ 10.15, 20.30] = [ 28.85,115.39] Ry 
 Optimized for a Real-space Cutoff    1.38 Angstroem

   l    n(q)    QCUT    max X(q) W(low)/X(q) W(high)/X(q)  e(spline) 
   0      8    10.150    20.381    0.22E-03    0.32E-03    0.29E-06
   0      8    10.150    15.268    0.23E-03    0.35E-03    0.30E-06
   1      8    10.150     5.964    0.46E-03    0.53E-03    0.21E-06
   1      8    10.150     5.382    0.38E-03    0.45E-03    0.19E-06
 Optimization of the real space projectors (new method)

 maximal supplied QI-value         = 34.20
 optimisation between [QCUT,QGAM] = [  9.92, 20.18] = [ 27.55,114.04] Ry 
 Optimized for a Real-space Cutoff    1.26 Angstroem

   l    n(q)    QCUT    max X(q) W(low)/X(q) W(high)/X(q)  e(spline) 
   0      8     9.919    19.460    0.50E-03    0.23E-03    0.29E-06
   0      8     9.919    12.209    0.48E-03    0.23E-03    0.28E-06
   1      7     9.919     4.655    0.17E-03    0.75E-03    0.30E-06
  PAW_PBE Co 02Aug2007                  :
 energy of atom  1       EATOM= -813.3670
 kinetic energy error for atom=    0.0093 (will be added to EATOM!!)
  PAW_PBE C 08Apr2002                   :
 energy of atom  2       EATOM= -147.1560
 kinetic energy error for atom=    0.0288 (will be added to EATOM!!)
  PAW_PBE O 08Apr2002                   :
 energy of atom  3       EATOM= -432.3788
 kinetic energy error for atom=    0.1156 (will be added to EATOM!!)
  PAW_PBE H 15Jun2001                   :
 energy of atom  4       EATOM=  -12.4884
 kinetic energy error for atom=    0.0098 (will be added to EATOM!!)
 
 
 POSCAR: Co C O H                                
  positions in direct lattice
  velocities in cartesian coordinates
 exchange correlation table for  LEXCH =        8
   RHO(1)=    0.500       N(1)  =     2000
   RHO(2)=  100.500       N(2)  =     4000

 VTST: version 3.1, (03/28/14)

 CHAIN: initializing optimizer
 
 OPT: Using VASP Conjugate-Gradient optimizer
 CHAIN: Read ICHAIN            0
 
 POSCAR: Co C O H                                
  positions in direct lattice
  velocities in cartesian coordinates
 


--------------------------------------------------------------------------------------------------------


 ion  position               nearest neighbor table
   1  0.500  0.500  0.000-  16 2.46  14 2.46   4 2.46   2 2.46  13 2.47   9 2.47  17 2.50
   2  0.667  0.750  0.000-   9 2.46  11 2.46   1 2.46   3 2.46  10 2.47  14 2.47  18 2.50
   3  0.500  0.000  0.000-  16 2.46  14 2.46   4 2.46   2 2.46  15 2.47  11 2.47  19 2.48
   4  0.667  0.250  0.000-   9 2.46  11 2.46   1 2.46   3 2.46  12 2.47  16 2.47  20 2.51
   5  0.000  0.500  0.000-  12 2.46  10 2.46   8 2.46   6 2.46   9 2.47  13 2.47  21 2.50
   6  0.167  0.750  0.000-  13 2.46  15 2.46   5 2.46   7 2.46  14 2.47  10 2.47  22 2.50
   7  0.000  0.000  0.000-  12 2.46  10 2.46   8 2.46   6 2.46  11 2.47  15 2.47  23 2.50
   8  0.167  0.250  0.000-  13 2.46  15 2.46   5 2.46   7 2.46  16 2.47  12 2.47  24 2.50
   9  0.750  0.500  0.056-  25 2.39   4 2.46   2 2.46  12 2.46  10 2.46   5 2.47   1 2.47  17 2.48
                            18 2.49  20 2.49  21 2.50
  10  0.917  0.750  0.056-  26 2.39   5 2.46   7 2.46   9 2.46  11 2.46  22 2.47   2 2.47   6 2.47
                            21 2.49  23 2.49  18 2.50
  11  0.750  0.000  0.056-  27 2.36   4 2.46   2 2.46  12 2.46  10 2.46   7 2.47   3 2.47  19 2.48
                            18 2.48  20 2.48  23 2.52
  12  0.917  0.250  0.056-  28 2.38   5 2.46   7 2.46   9 2.46  11 2.46   4 2.47   8 2.47  21 2.48
                            23 2.48  24 2.50  20 2.51
  13  0.250  0.500  0.056-  29 2.38   8 2.46   6 2.46  16 2.46  14 2.46   1 2.47   5 2.47  21 2.47
                            24 2.49  17 2.49  22 2.49
  14  0.417  0.750  0.056-  30 2.38   1 2.46   3 2.46  13 2.46  15 2.46   6 2.47   2 2.47  18 2.47
                            19 2.47  17 2.48  22 2.50
  15  0.250  0.000  0.056-  23 2.45  24 2.46   8 2.46   6 2.46  16 2.46  14 2.46   3 2.47   7 2.47
                            22 2.47  19 2.47  31 2.48
  16  0.417  0.250  0.056-  19 2.45   1 2.46   3 2.46  13 2.46  15 2.46  20 2.46  32 2.47   8 2.47
                             4 2.47  17 2.47  24 2.47
  17  0.500  0.499  0.112-  29 2.39  32 2.42  30 2.43  20 2.44  18 2.46  25 2.46  16 2.47  14 2.48
                             9 2.48  13 2.49   1 2.50
  18  0.664  0.751  0.113-  26 2.39  27 2.41  25 2.43  30 2.45  17 2.46  19 2.46  14 2.47  11 2.48
                             9 2.49   2 2.50  10 2.50
  19  0.500  0.001  0.112-  31 2.43  20 2.43  30 2.44  16 2.45  18 2.46  15 2.47  14 2.47  11 2.48
                             3 2.48  27 2.49  32 2.50
  20  0.663  0.249  0.113-  28 2.38  27 2.43  19 2.43  25 2.43  17 2.44  16 2.46  32 2.47  11 2.48
                             9 2.49   4 2.51  12 2.51
  21  0.002  0.499  0.113-  25 2.38  29 2.42  28 2.42  26 2.43  22 2.46  24 2.47  13 2.47  12 2.48
                            10 2.49   9 2.50   5 2.50
  22  0.164  0.752  0.113-  30 2.37  29 2.42  23 2.42  31 2.43  26 2.45  21 2.46  10 2.47  15 2.47
                            13 2.49   6 2.50  14 2.50
  23  0.005  0.001  0.112-  27 2.37  22 2.42  24 2.43  28 2.43  26 2.44  15 2.45  31 2.46  12 2.48
                            10 2.49   7 2.50  11 2.52
  24  0.168  0.248  0.112-  32 2.41  23 2.43  29 2.43  15 2.46  21 2.47  31 2.47  16 2.47  13 2.49
                            28 2.49  12 2.50   8 2.50
  25  0.756  0.500  0.163-  21 2.38   9 2.39  28 2.40  26 2.40  18 2.43  20 2.43  17 2.46
  26  0.911  0.750  0.163-  27 2.38  18 2.39  10 2.39  25 2.40  21 2.43  23 2.44  22 2.45
  27  0.759  0.999  0.162-  11 2.36  23 2.37  28 2.38  26 2.38  18 2.41  20 2.43  19 2.49
  28  0.909  0.250  0.163-  20 2.38  27 2.38  12 2.38  25 2.40  21 2.42  23 2.43  24 2.49
  29  0.254  0.501  0.162-  13 2.38  17 2.39  32 2.39  30 2.40  22 2.42  21 2.42  24 2.43
  30  0.409  0.750  0.163-  22 2.37  31 2.38  14 2.38  29 2.40  17 2.43  19 2.44  18 2.45
  31  0.255  0.996  0.167-  34 2.00  30 2.38  19 2.43  22 2.43  23 2.46  24 2.47  32 2.48  15 2.48

  32  0.412  0.256  0.167-  36 2.06  29 2.39  24 2.41  17 2.42  20 2.47  16 2.47  31 2.48  19 2.50

  33  0.177  0.076  0.285-  37 1.10  38 1.10  39 1.11  34 1.52
  34  0.325  0.025  0.252-  36 1.49  35 1.51  33 1.52  31 2.00
  35  0.408  0.882  0.283-  43 1.10  41 1.11  42 1.11  34 1.51
  36  0.429  0.173  0.254-  40 0.98  34 1.49  32 2.06
  37  0.090  0.976  0.282-  33 1.10
  38  0.126  0.190  0.266-  33 1.10
  39  0.204  0.098  0.333-  33 1.11
  40  0.538  0.134  0.253-  36 0.98
  41  0.518  0.848  0.259-  35 1.11
  42  0.437  0.915  0.330-  35 1.11
  43  0.333  0.771  0.284-  35 1.10
 
  LATTYP: Found a simple orthorhombic cell.
 ALAT       =     8.0199986100
 B/A-ratio  =     1.0673318421
 C/A-ratio  =     2.7718209293
  
  Lattice vectors:
  
 A1 = (   0.0000000000,  -8.0199986100,   0.0000000000)
 A2 = (  -8.5599998900,   0.0000000000,   0.0000000000)
 A3 = (   0.0000000000,   0.0000000000, -22.2300000000)


Analysis of symmetry for initial positions (statically):
=====================================================================
 Subroutine PRICEL returns:
 Original cell was already a primitive cell.
 

 Routine SETGRP: Setting up the symmetry group for a 
 simple orthorhombic supercell.


 Subroutine GETGRP returns: Found  1 space group operations
 (whereof  1 operations were pure point group operations)
 out of a pool of  8 trial point group operations.


The static configuration has the point symmetry C_1 .


Analysis of symmetry for dynamics (positions and initial velocities):
=====================================================================
 Subroutine PRICEL returns:
 Original cell was already a primitive cell.
 

 Routine SETGRP: Setting up the symmetry group for a 
 simple orthorhombic supercell.


 Subroutine GETGRP returns: Found  1 space group operations
 (whereof  1 operations were pure point group operations)
 out of a pool of  8 trial point group operations.


The dynamic configuration has the point symmetry C_1 .


Analysis of constrained symmetry for selective dynamics:
=====================================================================
 Subroutine PRICEL returns:
 Original cell was already a primitive cell.
 

 Routine SETGRP: Setting up the symmetry group for a 
 simple orthorhombic supercell.


 Subroutine GETGRP returns: Found  1 space group operations
 (whereof  1 operations were pure point group operations)
 out of a pool of  8 trial point group operations.


The constrained configuration has the point symmetry C_1 .


Analysis of magnetic symmetry:
=====================================================================
 Subroutine PRICEL returns:
 Original cell was already a primitive cell.
 

 Subroutine MAGSYM returns: Found  1 space group operations
 (whereof  1 operations were pure point group operations)
 out of a pool of  1 trial space group operations
 (whereof  1 operations were pure point group operations)
 and found also     1 'primitive' translations


The magnetic configuration has the point symmetry C_1 .
 
 
 KPOINTS:  Automatic mesh                         

Automatic generation of k-mesh.
Space group operators:
 irot       det(A)        alpha          n_x          n_y          n_z        tau_x        tau_y        tau_z
    1     1.000000     0.000000     1.000000     0.000000     0.000000     0.000000     0.000000     0.000000
 
 Subroutine IBZKPT returns following result:
 ===========================================
 
 Found      5 irreducible k-points:
 
 Following reciprocal coordinates:
            Coordinates               Weight
  0.000000  0.000000  0.000000      1.000000
  0.333333  0.000000  0.000000      2.000000
  0.000000  0.333333  0.000000      2.000000
  0.333333  0.333333  0.000000      2.000000
 -0.333333  0.333333  0.000000      2.000000
 
 Following cartesian coordinates:
            Coordinates               Weight
  0.000000  0.000000  0.000000      1.000000
  0.096184  0.000000  0.000000      2.000000
  0.000000  0.102660  0.000000      2.000000
  0.096184  0.102660  0.000000      2.000000
 -0.096184  0.102660  0.000000      2.000000
 


--------------------------------------------------------------------------------------------------------




 Dimension of arrays:
   k-points           NKPTS =      5   k-points in BZ     NKDIM =      5   number of bands    NBANDS=    216
   number of dos      NEDOS =    301   number of ions     NIONS =     43
   non local maximal  LDIM  =      6   non local SUM 2l+1 LMDIM =     18
   total plane-waves  NPLWV = 188160
   max r-space proj   IRMAX =   1408   max aug-charges    IRDMAX=   5061
   dimension x,y,z NGX =    42 NGY =   40 NGZ =  112
   dimension x,y,z NGXF=    84 NGYF=   80 NGZF=  224
   support grid    NGXF=    84 NGYF=   80 NGZF=  224
   ions per type =              32   3   1   7
 NGX,Y,Z   is equivalent  to a cutoff of   8.16,  8.29,  8.38 a.u.
 NGXF,Y,Z  is equivalent  to a cutoff of  16.31, 16.58, 16.75 a.u.


 I would recommend the setting:
   dimension x,y,z NGX =    42 NGY =   39 NGZ =  109
 SYSTEM =  unknown system                          
 POSCAR =  Co C O H                                

 Startparameter for this run:
   NWRITE =      2    write-flag & timer
   PREC   = normal    normal or accurate (medium, high low for compatibility)
   ISTART =      0    job   : 0-new  1-cont  2-samecut
   ICHARG =      2    charge: 1-file 2-atom 10-const
   ISPIN  =      2    spin polarized calculation?
   LNONCOLLINEAR =      F non collinear calculations
   LSORBIT =      F    spin-orbit coupling
   INIWAV =      1    electr: 0-lowe 1-rand  2-diag
   LASPH  =      F    aspherical Exc in radial PAW
   METAGGA=      F    non-selfconsistent MetaGGA calc.
   LSOL =      F    Solvation

 Electronic Relaxation 1
   ENCUT  =  400.0 eV  29.40 Ry    5.42 a.u.  13.96 13.08 36.25*2*pi/ulx,y,z
   ENINI  =  400.0     initial cutoff
   ENAUG  =  644.9 eV  augmentation charge cutoff
   NELM   =     60;   NELMIN=  2; NELMDL= -5     # of ELM steps 
   EDIFF  = 0.1E-05   stopping-criterion for ELM
   LREAL  =      T    real-space projection
   NLSPLINE    = F    spline interpolate recip. space projectors
   LCOMPAT=      F    compatible to vasp.4.4
   GGA_COMPAT  = T    GGA compatible to vasp.4.4-vasp.4.6
   LMAXPAW     = -100 max onsite density
   LMAXMIX     =    2 max onsite mixed and CHGCAR
   VOSKOWN=      0    Vosko Wilk Nusair interpolation
   ROPT   =   -0.00050  -0.00050  -0.00050  -0.00050
 Ionic relaxation
   EDIFFG = -.1E-01   stopping-criterion for IOM
   NSW    =    400    number of steps for IOM
   NBLOCK =      1;   KBLOCK =    400    inner block; outer block 
   IBRION =      2    ionic relax: 0-MD 1-quasi-New 2-CG
   NFREE  =      1    steps in history (QN), initial steepest desc. (CG)
   ISIF   =      2    stress and relaxation
   IWAVPR =     11    prediction:  0-non 1-charg 2-wave 3-comb
   ISYM   =      2    0-nonsym 1-usesym 2-fastsym
   LCORR  =      T    Harris-Foulkes like correction to forces

   POTIM  = 0.5000    time-step for ionic-motion
   TEIN   =    0.0    initial temperature
   TEBEG  =    0.0;   TEEND  =   0.0 temperature during run
   SMASS  =  -3.00    Nose mass-parameter (am)
   estimated Nose-frequenzy (Omega)   =  0.10E-29 period in steps =****** mass=  -0.167E-26a.u.
   SCALEE = 1.0000    scale energy and forces
   NPACO  =    256;   APACO  = 16.0  distance and # of slots for P.C.
   PSTRESS=    0.0 pullay stress

  Mass of Ions in am
   POMASS =  58.93 12.01 16.00  1.00
  Ionic Valenz
   ZVAL   =   9.00  4.00  6.00  1.00
  Atomic Wigner-Seitz radii
   RWIGS  =  -1.00 -1.00 -1.00 -1.00
  virtual crystal weights 
   VCA    =   1.00  1.00  1.00  1.00
   NELECT =     313.0000    total number of electrons
   NUPDOWN=      -1.0000    fix difference up-down

 DOS related values:
   EMIN   =  10.00;   EMAX   =-10.00  energy-range for DOS
   EFERMI =   0.00
   ISMEAR =     2;   SIGMA  =   0.20  broadening in eV -4-tet -1-fermi 0-gaus

 Electronic relaxation 2 (details)
   IALGO  =     38    algorithm
   LDIAG  =      T    sub-space diagonalisation (order eigenvalues)
   LSUBROT=      F    optimize rotation matrix (better conditioning)
   TURBO    =      0    0=normal 1=particle mesh
   IRESTART =      0    0=no restart 2=restart with 2 vectors
   NREBOOT  =      0    no. of reboots
   NMIN     =      0    reboot dimension
   EREF     =   0.00    reference energy to select bands
   IMIX   =      4    mixing-type and parameters
     AMIX     =   0.40;   BMIX     =  1.00
     AMIX_MAG =   1.60;   BMIX_MAG =  1.00
     AMIN     =   0.10
     WC   =   100.;   INIMIX=   1;  MIXPRE=   1;  MAXMIX= -45

 Intra band minimization:
   WEIMIN = 0.0010     energy-eigenvalue tresh-hold
   EBREAK =  0.12E-08  absolut break condition
   DEPER  =   0.30     relativ break condition  

   TIME   =   0.40     timestep for ELM

  volume/ion in A,a.u.               =      35.49       239.51
  Fermi-wavevector in a.u.,A,eV,Ry     =   0.965444  1.824425 12.681748  0.932082
  Thomas-Fermi vector in A             =   2.095161
 
 Write flags
   LWAVE  =      F    write WAVECAR
   LCHARG =      F    write CHGCAR
   LVTOT  =      F    write LOCPOT, total local potential
   LVHAR  =      F    write LOCPOT, Hartree potential only
   LELF   =      F    write electronic localiz. function (ELF)
   LORBIT =      0    0 simple, 1 ext, 2 COOP (PROOUT)


 Dipole corrections
   LMONO  =      F    monopole corrections only (constant potential shift)
   LDIPOL =      F    correct potential (dipole corrections)
   IDIPOL =      3    1-x, 2-y, 3-z, 4-all directions 
   EPSILON=  1.0000000 bulk dielectric constant

 Exchange correlation treatment:
   GGA     =    PE    GGA type
   LEXCH   =     8    internal setting for exchange type
   VOSKOWN=      0    Vosko Wilk Nusair interpolation
   LHFCALC =     F    Hartree Fock is set to
   LHFONE  =     F    Hartree Fock one center treatment
   AEXX    =    0.0000 exact exchange contribution

 Linear response parameters
   LEPSILON=     F    determine dielectric tensor
   LRPA    =     F    only Hartree local field effects (RPA)
   LNABLA  =     F    use nabla operator in PAW spheres
   LVEL    =     F    velocity operator in full k-point grid
   LINTERFAST=   F  fast interpolation
   KINTER  =     0    interpolate to denser k-point grid
   CSHIFT  =0.1000    complex shift for real part using Kramers Kronig
   OMEGAMAX=  -1.0    maximum frequency
   DEG_THRESHOLD= 0.2000000E-02 threshold for treating states as degnerate
   RTIME   =    0.100 relaxation time in fs

 Orbital magnetization related:
   ORBITALMAG=     F  switch on orbital magnetization
   LCHIMAG   =     F  perturbation theory with respect to B field
   DQ        =  0.001000  dq finite difference perturbation B field



--------------------------------------------------------------------------------------------------------


 conjugate gradient relaxation of ions
   using selective dynamics as specified on POSCAR
 charge density and potential will be updated during run
 spin polarized calculation
 Variant of blocked Davidson
 Davidson routine will perform the subspace rotation
 perform sub-space diagonalisation
    after iterative eigenvector-optimisation
 modified Broyden-mixing scheme, WC =      100.0
 initial mixing is a Kerker type mixing with AMIX =  0.4000 and BMIX =      1.0000
 Hartree-type preconditioning will be used
 using additional bands           59
 real space projection scheme for non local part
 use partial core corrections
 calculate Harris-corrections to forces 
   (improved forces if not selfconsistent)
 use gradient corrections 
 use of overlap-Matrix (Vanderbilt PP)
 Methfessel and Paxton  Order N= 2 SIGMA  =   0.20


--------------------------------------------------------------------------------------------------------


  energy-cutoff  :      400.00
  volume of cell :     1526.12
      direct lattice vectors                 reciprocal lattice vectors
     8.559999890  0.000000000  0.000000000     0.116822431  0.000000000  0.000000000
     0.000000000  8.019998610  0.000000000     0.000000000  0.124688301  0.000000000
     0.000000000  0.000000000 22.230000000     0.000000000  0.000000000  0.044984256

  length of vectors
     8.559999890  8.019998610 22.230000000     0.116822431  0.124688301  0.044984256


 
 k-points in units of 2pi/SCALE and weight:  Automatic mesh                         
   0.00000000  0.00000000  0.00000000       0.111
   0.09618380  0.00000000  0.00000000       0.222
   0.00000000  0.10266003  0.00000000       0.222
   0.09618380  0.10266003  0.00000000       0.222
  -0.09618380  0.10266003  0.00000000       0.222
 
 k-points in reciprocal lattice and weights:  Automatic mesh                         
   0.00000000  0.00000000  0.00000000       0.111
   0.33333333  0.00000000  0.00000000       0.222
   0.00000000  0.33333333  0.00000000       0.222
   0.33333333  0.33333333  0.00000000       0.222
  -0.33333333  0.33333333  0.00000000       0.222
 
 position of ions in fractional coordinates (direct lattice) 
   0.49999899  0.49999954  0.00000000
   0.66670668  0.74999931  0.00000000
   0.49999899  0.00000000  0.00000000
   0.66670668  0.25000008  0.00000000
   0.00000000  0.49999954  0.00000000
   0.16670567  0.74999931  0.00000000
   0.00000000  0.00000000  0.00000000
   0.16670567  0.25000008  0.00000000
   0.74999993  0.49999954  0.05555556
   0.91670473  0.74999931  0.05555556
   0.74999993  0.00000000  0.05555556
   0.91670473  0.25000008  0.05555556
   0.25000007  0.49999954  0.05555556
   0.41670574  0.74999931  0.05555556
   0.25000007  0.00000000  0.05555556
   0.41670574  0.25000008  0.05555556
   0.50037416  0.49946616  0.11240852
   0.66449390  0.75058369  0.11260029
   0.49967256  0.00140609  0.11150560
   0.66345674  0.24937046  0.11270336
   0.00199334  0.49885484  0.11267816
   0.16434363  0.75161817  0.11252533
   0.00482496  0.00088722  0.11248261
   0.16847693  0.24774794  0.11242668
   0.75602133  0.50025519  0.16296083
   0.91052851  0.74974904  0.16306699
   0.75905369  0.99921244  0.16184599
   0.90863840  0.24980461  0.16275566
   0.25356345  0.50109236  0.16247547
   0.40934673  0.74999214  0.16256742
   0.25487770  0.99628859  0.16702790
   0.41151275  0.25580942  0.16665490
   0.17720497  0.07563019  0.28520708
   0.32475703  0.02512077  0.25203081
   0.40799402  0.88187280  0.28268385
   0.42902790  0.17323522  0.25424948
   0.08962171  0.97584341  0.28209696
   0.12598298  0.18955653  0.26603611
   0.20412118  0.09847580  0.33319462
   0.53771911  0.13368999  0.25264793
   0.51797206  0.84847499  0.25947413
   0.43746838  0.91465273  0.32980300
   0.33250013  0.77089093  0.28362680
 
 position of ions in cartesian coordinates  (Angst):
   4.27999130  4.00999560  0.00000000
   5.70700910  6.01499340  0.00000000
   4.27999130  0.00000000  0.00000000
   5.70700910  2.00500027  0.00000000
   0.00000000  4.00999560  0.00000000
   1.42700051  6.01499340  0.00000000
   0.00000000  0.00000000  0.00000000
   1.42700051  2.00500027  0.00000000
   6.41999930  4.00999560  1.23500000
   7.84699240  6.01499340  1.23500000
   6.41999930  0.00000000  1.23500000
   7.84699240  2.00500027  1.23500000
   2.14000059  4.00999560  1.23500000
   3.56700110  6.01499340  1.23500000
   2.14000059  0.00000000  1.23500000
   3.56700110  2.00500027  1.23500000
   4.28320276  4.00571795  2.49884149
   5.68806774  6.01968018  2.50310438
   4.27719708  0.01127685  2.47876942
   5.67918966  1.99995074  2.50539559
   0.01706298  4.00081514  2.50483559
   1.40678144  6.02797664  2.50143806
   0.04130165  0.00711547  2.50048844
   1.44216249  1.98693811  2.49924503
   6.47154254  4.01204596  3.62261934
   7.79412391  6.01298626  3.62497923
   6.49749950  8.01368235  3.59783634
   7.77794456  2.00343265  3.61805831
   2.17050309  4.01876000  3.61182971
   3.50400798  6.01493591  3.61387384
   2.18175310  7.99023307  3.71303015
   3.52254907  2.05159122  3.70473840
   1.51687453  0.60655402  6.34015328
   2.77992012  0.20146857  5.60264481
   3.49242875  7.07261863  6.28406193
   3.67247877  1.38934626  5.65196586
   0.76716184  7.82626278  6.27101536
   1.07841432  1.52024307  5.91398278
   1.74727724  0.78977577  7.40691639
   4.60287549  1.07219354  5.61636342
   4.43384080  6.80476824  5.76810992
   3.74472928  7.33551365  7.33152077
   2.84620110  6.18254416  6.30502366
 


--------------------------------------------------------------------------------------------------------


 k-point  1 :   0.0000 0.0000 0.0000  plane waves:   27673
 k-point  2 :   0.3333 0.0000 0.0000  plane waves:   27720
 k-point  3 :   0.0000 0.3333 0.0000  plane waves:   27710
 k-point  4 :   0.3333 0.3333 0.0000  plane waves:   27742
 k-point  5 :  -0.3333 0.3333 0.0000  plane waves:   27742

 maximum and minimum number of plane-waves per node :     27742    27673

 maximum number of plane-waves:     27742
 maximum index in each direction: 
   IXMAX=   14   IYMAX=   13   IZMAX=   36
   IXMIN=  -14   IYMIN=  -13   IZMIN=  -36

 WARNING: aliasing errors must be expected set NGX to  58 to avoid them
 WARNING: aliasing errors must be expected set NGY to  54 to avoid them
 WARNING: aliasing errors must be expected set NGZ to 146 to avoid them
 aliasing errors are usually negligible using standard VASP settings
 and one can safely disregard these warnings

 serial   3D FFT for wavefunctions
 parallel 3D FFT for charge:
    minimum data exchange during FFTs selected (reduces bandwidth)


 total amount of memory used by VASP on root node   203285. kBytes
========================================================================

   base      :      30000. kBytes
   nonlr-proj:       7758. kBytes
   fftplans  :       7367. kBytes
   grid      :      34170. kBytes
   one-center:       1337. kBytes
   wavefun   :     122653. kBytes
 
     INWAV:  cpu time    0.00: real time    0.00
 Broyden mixing: mesh for mixing (old mesh)
   NGX = 27   NGY = 27   NGZ = 73
  (NGX  = 84   NGY  = 80   NGZ  =224)
  gives a total of  53217 points

 initial charge density was supplied:
 charge density of overlapping atoms calculated
 number of electron     313.0000000 magnetization      52.1600000
 keeping initial charge density in first step


--------------------------------------------------------------------------------------------------------


 Maximum index for non-local projection operator         1318
 Maximum index for augmentation-charges          782 (set IRDMAX)


--------------------------------------------------------------------------------------------------------


 First call to EWALD:  gamma=   0.154
 Maximum number of real-space cells 4x 4x 2
 Maximum number of reciprocal cells 2x 2x 5

 FEWALD executed in parallel
    FEWALD:  cpu time    0.00: real time    0.00


----------------------------------------- Iteration    1(   1)  ---------------------------------------


    POTLOK:  cpu time    0.55: real time    0.55
    SETDIJ:  cpu time    0.06: real time    0.06
     EDDAV:  cpu time   25.77: real time   25.85
       DOS:  cpu time    0.00: real time    0.00
    --------------------------------------------
      LOOP:  cpu time   26.38: real time   26.46

 eigenvalue-minimisations  :  4320
 total energy-change (2. order) : 0.2193877E+04  (-0.1102564E+05)
 number of electron     313.0000000 magnetization      52.1600000
 augmentation part      313.0000000 magnetization      52.1600000

 Free energy of the ion-electron system (eV)
  ---------------------------------------------------
  alpha Z        PSCENC =       329.76814779
  Ewald energy   TEWEN  =    106781.89951969
  -Hartree energ DENC   =   -132071.35054617
  -exchange      EXHF   =         0.00000000
  -V(xc)+E(xc)   XCENC  =       614.88085530
  PAW double counting   =     23749.85691234   -25449.61764622
  entropy T*S    EENTRO =         0.00644347
  eigenvalues    EBANDS =      1249.99019230
  atomic energy  EATOM  =     26988.44278752
  Solvation contrib.  Ediel  =         0.00000000
  ---------------------------------------------------
  free energy    TOTEN  =      2193.87666603 eV

  energy without entropy =     2193.87022256  energy(sigma->0) =     2193.87505516


--------------------------------------------------------------------------------------------------------




----------------------------------------- Iteration    1(   2)  ---------------------------------------


     EDDAV:  cpu time   21.55: real time   21.59
       DOS:  cpu time    0.00: real time    0.00
    --------------------------------------------
      LOOP:  cpu time   21.56: real time   21.59

 eigenvalue-minimisations  :  4424
 total energy-change (2. order) :-0.2242015E+04  (-0.2099290E+04)
 number of electron     313.0000000 magnetization      52.1600000
 augmentation part      313.0000000 magnetization      52.1600000

 Free energy of the ion-electron system (eV)
  ---------------------------------------------------
  alpha Z        PSCENC =       329.76814779
  Ewald energy   TEWEN  =    106781.89951969
  -Hartree energ DENC   =   -132071.35054617
  -exchange      EXHF   =         0.00000000
  -V(xc)+E(xc)   XCENC  =       614.88085530
  PAW double counting   =     23749.85691234   -25449.61764622
  entropy T*S    EENTRO =        -0.00618936
  eigenvalues    EBANDS =      -992.01189217
  atomic energy  EATOM  =     26988.44278752
  Solvation contrib.  Ediel  =         0.00000000
  ---------------------------------------------------
  free energy    TOTEN  =       -48.13805127 eV

  energy without entropy =      -48.13186191  energy(sigma->0) =      -48.13650393


--------------------------------------------------------------------------------------------------------




----------------------------------------- Iteration    1(   3)  ---------------------------------------


     EDDAV:  cpu time   39.45: real time   39.56
       DOS:  cpu time    0.00: real time    0.00
    --------------------------------------------
      LOOP:  cpu time   39.45: real time   39.56

 eigenvalue-minimisations  :  5984
 total energy-change (2. order) :-0.2347536E+03  (-0.2150003E+03)
 number of electron     313.0000000 magnetization      52.1600000
 augmentation part      313.0000000 magnetization      52.1600000

 Free energy of the ion-electron system (eV)
  ---------------------------------------------------
  alpha Z        PSCENC =       329.76814779
  Ewald energy   TEWEN  =    106781.89951969
  -Hartree energ DENC   =   -132071.35054617
  -exchange      EXHF   =         0.00000000
  -V(xc)+E(xc)   XCENC  =       614.88085530
  PAW double counting   =     23749.85691234   -25449.61764622
  entropy T*S    EENTRO =        -0.04105434
  eigenvalues    EBANDS =     -1226.73065161
  atomic energy  EATOM  =     26988.44278752
  Solvation contrib.  Ediel  =         0.00000000
  ---------------------------------------------------
  free energy    TOTEN  =      -282.89167570 eV

  energy without entropy =     -282.85062135  energy(sigma->0) =     -282.88141211


--------------------------------------------------------------------------------------------------------




----------------------------------------- Iteration    1(   4)  ---------------------------------------


     EDDAV:  cpu time   41.52: real time   41.62
       DOS:  cpu time    0.00: real time    0.00
    --------------------------------------------
      LOOP:  cpu time   41.52: real time   41.62

 eigenvalue-minimisations  :  5080
 total energy-change (2. order) :-0.1605901E+02  (-0.1569437E+02)
 number of electron     313.0000000 magnetization      52.1600000
 augmentation part      313.0000000 magnetization      52.1600000

 Free energy of the ion-electron system (eV)
  ---------------------------------------------------
  alpha Z        PSCENC =       329.76814779
  Ewald energy   TEWEN  =    106781.89951969
  -Hartree energ DENC   =   -132071.35054617
  -exchange      EXHF   =         0.00000000
  -V(xc)+E(xc)   XCENC  =       614.88085530
  PAW double counting   =     23749.85691234   -25449.61764622
  entropy T*S    EENTRO =        -0.04591290
  eigenvalues    EBANDS =     -1242.78479943
  atomic energy  EATOM  =     26988.44278752
  Solvation contrib.  Ediel  =         0.00000000
  ---------------------------------------------------
  free energy    TOTEN  =      -298.95068207 eV

  energy without entropy =     -298.90476917  energy(sigma->0) =     -298.93920385


--------------------------------------------------------------------------------------------------------




----------------------------------------- Iteration    1(   5)  ---------------------------------------


     EDDAV:  cpu time   56.54: real time   56.66
       DOS:  cpu time    0.00: real time    0.00
    CHARGE:  cpu time    1.62: real time    1.63
    MIXING:  cpu time    0.01: real time    0.01
    --------------------------------------------
      LOOP:  cpu time   58.17: real time   58.30

 eigenvalue-minimisations  :  6392
 total energy-change (2. order) :-0.5743039E+00  (-0.5714249E+00)
 number of electron     313.0000770 magnetization      52.6567211
 augmentation part      150.3736386 magnetization      38.8567943

 Broyden mixing:
  rms(total) = 0.60477E+01    rms(broyden)= 0.60473E+01
  rms(prec ) = 0.63478E+01
  weight for this iteration     100.00

 Free energy of the ion-electron system (eV)
  ---------------------------------------------------
  alpha Z        PSCENC =       329.76814779
  Ewald energy   TEWEN  =    106781.89951969
  -Hartree energ DENC   =   -132071.35054617
  -exchange      EXHF   =         0.00000000
  -V(xc)+E(xc)   XCENC  =       614.88085530
  PAW double counting   =     23749.85691234   -25449.61764622
  entropy T*S    EENTRO =        -0.04506208
  eigenvalues    EBANDS =     -1243.35995415
  atomic energy  EATOM  =     26988.44278752
  Solvation contrib.  Ediel  =         0.00000000
  ---------------------------------------------------
  free energy    TOTEN  =      -299.52498597 eV

  energy without entropy =     -299.47992389  energy(sigma->0) =     -299.51372045


--------------------------------------------------------------------------------------------------------




----------------------------------------- Iteration    1(   6)  ---------------------------------------


    POTLOK:  cpu time    0.50: real time    0.51
    SETDIJ:  cpu time    0.07: real time    0.07
     EDDAV:  cpu time   45.27: real time   45.37
       DOS:  cpu time    0.00: real time    0.00
    CHARGE:  cpu time    1.37: real time    1.37
    MIXING:  cpu time    0.01: real time    0.01
    --------------------------------------------
      LOOP:  cpu time   47.22: real time   47.32

 eigenvalue-minimisations  :  5176
 total energy-change (2. order) :-0.5281285E+02  (-0.3327288E+02)
 number of electron     313.0000662 magnetization      52.0425765
 augmentation part      168.4034778 magnetization      47.6138453

 Broyden mixing:
  rms(total) = 0.12796E+02    rms(broyden)= 0.12796E+02
  rms(prec ) = 0.13729E+02
  weight for this iteration     100.00

 eigenvalues of (default mixing * dielectric matrix)
  average eigenvalue GAMMA=   0.2557
  0.2557

 Free energy of the ion-electron system (eV)
  ---------------------------------------------------
  alpha Z        PSCENC =       329.76814779
  Ewald energy   TEWEN  =    106781.89951969
  -Hartree energ DENC   =   -131763.76169043
  -exchange      EXHF   =         0.00000000
  -V(xc)+E(xc)   XCENC  =       600.89402901
  PAW double counting   =     26017.81274250   -27565.89233008
  entropy T*S    EENTRO =         0.04871954
  eigenvalues    EBANDS =     -1741.54975865
  atomic energy  EATOM  =     26988.44278752
  Solvation contrib.  Ediel  =         0.00000000
  ---------------------------------------------------
  free energy    TOTEN  =      -352.33783312 eV

  energy without entropy =     -352.38655266  energy(sigma->0) =     -352.35001301


--------------------------------------------------------------------------------------------------------




----------------------------------------- Iteration    1(   7)  ---------------------------------------


    POTLOK:  cpu time    0.41: real time    0.41
    SETDIJ:  cpu time    0.05: real time    0.05
     EDDAV:  cpu time   32.28: real time   32.33
       DOS:  cpu time    0.00: real time    0.00
    CHARGE:  cpu time    1.32: real time    1.33
    MIXING:  cpu time    0.01: real time    0.01
    --------------------------------------------
      LOOP:  cpu time   34.08: real time   34.13

 eigenvalue-minimisations  :  4920
 total energy-change (2. order) : 0.5934577E+02  (-0.2490637E+02)
 number of electron     313.0000915 magnetization      51.7300901
 augmentation part      174.2771312 magnetization      41.6240073

 Broyden mixing:
  rms(total) = 0.71992E+01    rms(broyden)= 0.71985E+01
  rms(prec ) = 0.77915E+01
  weight for this iteration     100.00

 eigenvalues of (default mixing * dielectric matrix)
  average eigenvalue GAMMA=   0.3763
  0.6039  0.1487

 Free energy of the ion-electron system (eV)
  ---------------------------------------------------
  alpha Z        PSCENC =       329.76814779
  Ewald energy   TEWEN  =    106781.89951969
  -Hartree energ DENC   =   -131690.04151957
  -exchange      EXHF   =         0.00000000
  -V(xc)+E(xc)   XCENC  =       595.82164666
  PAW double counting   =     26497.41636390   -28069.54328223
  entropy T*S    EENTRO =         0.03795961
  eigenvalues    EBANDS =     -1726.79368503
  atomic energy  EATOM  =     26988.44278752
  Solvation contrib.  Ediel  =         0.00000000
  ---------------------------------------------------
  free energy    TOTEN  =      -292.99206167 eV

  energy without entropy =     -293.03002128  energy(sigma->0) =     -293.00155157


--------------------------------------------------------------------------------------------------------




----------------------------------------- Iteration    1(   8)  ---------------------------------------


    POTLOK:  cpu time    0.41: real time    0.41
    SETDIJ:  cpu time    0.05: real time    0.05
     EDDAV:  cpu time   33.37: real time   33.41
       DOS:  cpu time    0.00: real time    0.00
    CHARGE:  cpu time    1.45: real time    1.45
    MIXING:  cpu time    0.01: real time    0.01
    --------------------------------------------
      LOOP:  cpu time   35.29: real time   35.34

 eigenvalue-minimisations  :  5112
 total energy-change (2. order) : 0.2327581E+02  (-0.7668568E+01)
 number of electron     313.0000812 magnetization      51.5625002
 augmentation part      167.7596284 magnetization      42.9061716

 Broyden mixing:
  rms(total) = 0.53210E+01    rms(broyden)= 0.53205E+01
  rms(prec ) = 0.58454E+01
  weight for this iteration     100.00

 eigenvalues of (default mixing * dielectric matrix)
  average eigenvalue GAMMA=   0.3968
  0.7688  0.2713  0.1502

 Free energy of the ion-electron system (eV)
  ---------------------------------------------------
  alpha Z        PSCENC =       329.76814779
  Ewald energy   TEWEN  =    106781.89951969
  -Hartree energ DENC   =   -131961.87125250
  -exchange      EXHF   =         0.00000000
  -V(xc)+E(xc)   XCENC  =       600.70307033
  PAW double counting   =     27662.65664317   -29312.04519985
  entropy T*S    EENTRO =        -0.01435809
  eigenvalues    EBANDS =     -1359.25560590
  atomic energy  EATOM  =     26988.44278752
  Solvation contrib.  Ediel  =         0.00000000
  ---------------------------------------------------
  free energy    TOTEN  =      -269.71624784 eV

  energy without entropy =     -269.70188976  energy(sigma->0) =     -269.71265832


--------------------------------------------------------------------------------------------------------




----------------------------------------- Iteration    1(   9)  ---------------------------------------


    POTLOK:  cpu time    0.42: real time    0.42
    SETDIJ:  cpu time    0.05: real time    0.05
     EDDAV:  cpu time   36.63: real time   36.68
       DOS:  cpu time    0.00: real time    0.00
    CHARGE:  cpu time    1.40: real time    1.40
    MIXING:  cpu time    0.01: real time    0.01
    --------------------------------------------
      LOOP:  cpu time   38.51: real time   38.56

 eigenvalue-minimisations  :  5576
 total energy-change (2. order) :-0.2408568E+02  (-0.6295539E+01)
 number of electron     313.0000844 magnetization      51.0811873
 augmentation part      165.4707249 magnetization      45.3564781

 Broyden mixing:
  rms(total) = 0.88312E+01    rms(broyden)= 0.88307E+01
  rms(prec ) = 0.10481E+02
  weight for this iteration     100.00

 eigenvalues of (default mixing * dielectric matrix)
  average eigenvalue GAMMA=   0.3883
  0.6439  0.6439  0.1327  0.1327

 Free energy of the ion-electron system (eV)
  ---------------------------------------------------
  alpha Z        PSCENC =       329.76814779
  Ewald energy   TEWEN  =    106781.89951969
  -Hartree energ DENC   =   -132041.70041924
  -exchange      EXHF   =         0.00000000
  -V(xc)+E(xc)   XCENC  =       602.75020427
  PAW double counting   =     28163.93179366   -29839.08937713
  entropy T*S    EENTRO =         0.03159916
  eigenvalues    EBANDS =     -1279.83618630
  atomic energy  EATOM  =     26988.44278752
  Solvation contrib.  Ediel  =         0.00000000
  ---------------------------------------------------
  free energy    TOTEN  =      -293.80193059 eV

  energy without entropy =     -293.83352974  energy(sigma->0) =     -293.80983038


--------------------------------------------------------------------------------------------------------




----------------------------------------- Iteration    1(  10)  ---------------------------------------


    POTLOK:  cpu time    0.42: real time    0.42
    SETDIJ:  cpu time    0.05: real time    0.05
     EDDAV:  cpu time   34.58: real time   34.62
       DOS:  cpu time    0.00: real time    0.00
    CHARGE:  cpu time    1.42: real time    1.42
    MIXING:  cpu time    0.01: real time    0.01
    --------------------------------------------
      LOOP:  cpu time   36.48: real time   36.53

 eigenvalue-minimisations  :  5336
 total energy-change (2. order) : 0.1098233E+02  (-0.4960000E+01)
 number of electron     313.0000633 magnetization      50.8650801
 augmentation part      164.3698457 magnetization      42.3161054

 Broyden mixing:
  rms(total) = 0.62418E+01    rms(broyden)= 0.62412E+01
  rms(prec ) = 0.72353E+01
  weight for this iteration     100.00

 eigenvalues of (default mixing * dielectric matrix)
  average eigenvalue GAMMA=   0.3446
  0.6723  0.6723  0.1560  0.1560  0.0663

 Free energy of the ion-electron system (eV)
  ---------------------------------------------------
  alpha Z        PSCENC =       329.76814779
  Ewald energy   TEWEN  =    106781.89951969
  -Hartree energ DENC   =   -132059.04308989
  -exchange      EXHF   =         0.00000000
  -V(xc)+E(xc)   XCENC  =       601.66007660
  PAW double counting   =     28494.30093367   -30179.91450415
  entropy T*S    EENTRO =        -0.00533360
  eigenvalues    EBANDS =     -1239.92813648
  atomic energy  EATOM  =     26988.44278752
  Solvation contrib.  Ediel  =         0.00000000
  ---------------------------------------------------
  free energy    TOTEN  =      -282.81959885 eV

  energy without entropy =     -282.81426525  energy(sigma->0) =     -282.81826545


--------------------------------------------------------------------------------------------------------




----------------------------------------- Iteration    1(  11)  ---------------------------------------


    POTLOK:  cpu time    0.42: real time    0.42
    SETDIJ:  cpu time    0.05: real time    0.05
     EDDAV:  cpu time   32.23: real time   32.27
       DOS:  cpu time    0.00: real time    0.00
    CHARGE:  cpu time    1.49: real time    1.49
    MIXING:  cpu time    0.01: real time    0.01
    --------------------------------------------
      LOOP:  cpu time   34.21: real time   34.25

 eigenvalue-minimisations  :  5176
 total energy-change (2. order) : 0.1658594E+02  (-0.2265290E+01)
 number of electron     313.0000766 magnetization      50.8520536
 augmentation part      165.1396873 magnetization      41.0316728

 Broyden mixing:
  rms(total) = 0.38187E+01    rms(broyden)= 0.38185E+01
  rms(prec ) = 0.42331E+01
  weight for this iteration     100.00

 eigenvalues of (default mixing * dielectric matrix)
  average eigenvalue GAMMA=   0.3283
  0.8715  0.3556  0.3556  0.1807  0.1033  0.1033

 Free energy of the ion-electron system (eV)
  ---------------------------------------------------
  alpha Z        PSCENC =       329.76814779
  Ewald energy   TEWEN  =    106781.89951969
  -Hartree energ DENC   =   -132053.23195471
  -exchange      EXHF   =         0.00000000
  -V(xc)+E(xc)   XCENC  =       601.59709897
  PAW double counting   =     28630.82812320   -30318.19509098
  entropy T*S    EENTRO =         0.00236843
  eigenvalues    EBANDS =     -1227.34465615
  atomic energy  EATOM  =     26988.44278752
  Solvation contrib.  Ediel  =         0.00000000
  ---------------------------------------------------
  free energy    TOTEN  =      -266.23365624 eV

  energy without entropy =     -266.23602467  energy(sigma->0) =     -266.23424835


--------------------------------------------------------------------------------------------------------




----------------------------------------- Iteration    1(  12)  ---------------------------------------


    POTLOK:  cpu time    0.42: real time    0.43
    SETDIJ:  cpu time    0.05: real time    0.05
     EDDAV:  cpu time   32.09: real time   32.14
       DOS:  cpu time    0.00: real time    0.00
    CHARGE:  cpu time    1.44: real time    1.44
    MIXING:  cpu time    0.01: real time    0.01
    --------------------------------------------
      LOOP:  cpu time   34.02: real time   34.07

 eigenvalue-minimisations  :  5136
 total energy-change (2. order) : 0.2529763E+01  (-0.1196490E+01)
 number of electron     313.0000765 magnetization      50.7929825
 augmentation part      164.7448109 magnetization      41.4841080

 Broyden mixing:
  rms(total) = 0.33905E+01    rms(broyden)= 0.33903E+01
  rms(prec ) = 0.37895E+01
  weight for this iteration     100.00

 eigenvalues of (default mixing * dielectric matrix)
  average eigenvalue GAMMA=   0.3802
  1.1846  0.4932  0.4932  0.1602  0.1246  0.1246  0.0811

 Free energy of the ion-electron system (eV)
  ---------------------------------------------------
  alpha Z        PSCENC =       329.76814779
  Ewald energy   TEWEN  =    106781.89951969
  -Hartree energ DENC   =   -132064.99440955
  -exchange      EXHF   =         0.00000000
  -V(xc)+E(xc)   XCENC  =       602.35917321
  PAW double counting   =     28779.74156500   -30470.68679247
  entropy T*S    EENTRO =        -0.00783055
  eigenvalues    EBANDS =     -1210.22605399
  atomic energy  EATOM  =     26988.44278752
  Solvation contrib.  Ediel  =         0.00000000
  ---------------------------------------------------
  free energy    TOTEN  =      -263.70389334 eV

  energy without entropy =     -263.69606279  energy(sigma->0) =     -263.70193570


--------------------------------------------------------------------------------------------------------




----------------------------------------- Iteration    1(  13)  ---------------------------------------


    POTLOK:  cpu time    0.43: real time    0.43
    SETDIJ:  cpu time    0.05: real time    0.05
     EDDAV:  cpu time   32.05: real time   32.09
       DOS:  cpu time    0.00: real time    0.00
    CHARGE:  cpu time    1.40: real time    1.40
    MIXING:  cpu time    0.02: real time    0.01
    --------------------------------------------
      LOOP:  cpu time   33.94: real time   33.98

 eigenvalue-minimisations  :  5160
 total energy-change (2. order) : 0.1960612E+01  (-0.9812277E+00)
 number of electron     313.0000786 magnetization      50.8210449
 augmentation part      164.9005387 magnetization      41.2832857

 Broyden mixing:
  rms(total) = 0.20249E+01    rms(broyden)= 0.20245E+01
  rms(prec ) = 0.22336E+01
  weight for this iteration     100.00

 eigenvalues of (default mixing * dielectric matrix)
  average eigenvalue GAMMA=   0.3521
  1.2205  0.4786  0.4786  0.1613  0.1481  0.1481  0.0909  0.0909

 Free energy of the ion-electron system (eV)
  ---------------------------------------------------
  alpha Z        PSCENC =       329.76814779
  Ewald energy   TEWEN  =    106781.89951969
  -Hartree energ DENC   =   -132076.32503182
  -exchange      EXHF   =         0.00000000
  -V(xc)+E(xc)   XCENC  =       603.34793914
  PAW double counting   =     29109.00444151   -30805.56294576
  entropy T*S    EENTRO =        -0.05908074
  eigenvalues    EBANDS =     -1192.25905828
  atomic energy  EATOM  =     26988.44278752
  Solvation contrib.  Ediel  =         0.00000000
  ---------------------------------------------------
  free energy    TOTEN  =      -261.74328095 eV

  energy without entropy =     -261.68420021  energy(sigma->0) =     -261.72851077


--------------------------------------------------------------------------------------------------------




----------------------------------------- Iteration    1(  14)  ---------------------------------------


    POTLOK:  cpu time    0.42: real time    0.42
    SETDIJ:  cpu time    0.05: real time    0.05
     EDDAV:  cpu time   30.90: real time   30.94
       DOS:  cpu time    0.00: real time    0.00
    CHARGE:  cpu time    1.44: real time    1.44
    MIXING:  cpu time    0.02: real time    0.01
    --------------------------------------------
      LOOP:  cpu time   32.82: real time   32.86

 eigenvalue-minimisations  :  4672
 total energy-change (2. order) : 0.6563683E+00  (-0.3240998E+00)
 number of electron     313.0000804 magnetization      50.9392032
 augmentation part      164.7738720 magnetization      41.7669469

 Broyden mixing:
  rms(total) = 0.13873E+01    rms(broyden)= 0.13870E+01
  rms(prec ) = 0.14731E+01
  weight for this iteration     100.00

 eigenvalues of (default mixing * dielectric matrix)
  average eigenvalue GAMMA=   0.3736
  1.3109  0.5480  0.5480  0.3656  0.1503  0.1503  0.0823  0.1033  0.1033

 Free energy of the ion-electron system (eV)
  ---------------------------------------------------
  alpha Z        PSCENC =       329.76814779
  Ewald energy   TEWEN  =    106781.89951969
  -Hartree energ DENC   =   -132080.29757938
  -exchange      EXHF   =         0.00000000
  -V(xc)+E(xc)   XCENC  =       603.50744282
  PAW double counting   =     29175.40834940   -30872.60620192
  entropy T*S    EENTRO =        -0.07137027
  eigenvalues    EBANDS =     -1187.13800835
  atomic energy  EATOM  =     26988.44278752
  Solvation contrib.  Ediel  =         0.00000000
  ---------------------------------------------------
  free energy    TOTEN  =      -261.08691270 eV

  energy without entropy =     -261.01554243  energy(sigma->0) =     -261.06907013


--------------------------------------------------------------------------------------------------------




----------------------------------------- Iteration    1(  15)  ---------------------------------------


    POTLOK:  cpu time    0.42: real time    0.43
    SETDIJ:  cpu time    0.05: real time    0.05
     EDDAV:  cpu time   33.10: real time   33.14
       DOS:  cpu time    0.00: real time    0.00
    CHARGE:  cpu time    1.34: real time    1.34
    MIXING:  cpu time    0.01: real time    0.01
    --------------------------------------------
      LOOP:  cpu time   34.92: real time   34.97

 eigenvalue-minimisations  :  5384
 total energy-change (2. order) :-0.7739877E+00  (-0.1733188E+00)
 number of electron     313.0000797 magnetization      51.0278507
 augmentation part      164.8971551 magnetization      42.3814300

 Broyden mixing:
  rms(total) = 0.14598E+01    rms(broyden)= 0.14597E+01
  rms(prec ) = 0.15410E+01
  weight for this iteration     100.00

 eigenvalues of (default mixing * dielectric matrix)
  average eigenvalue GAMMA=   0.3619
  1.3437  0.5864  0.5864  0.3710  0.1620  0.1620  0.1135  0.1135  0.0834  0.0971

 Free energy of the ion-electron system (eV)
  ---------------------------------------------------
  alpha Z        PSCENC =       329.76814779
  Ewald energy   TEWEN  =    106781.89951969
  -Hartree energ DENC   =   -132088.23679917
  -exchange      EXHF   =         0.00000000
  -V(xc)+E(xc)   XCENC  =       603.69721402
  PAW double counting   =     29315.54634456   -31013.27207833
  entropy T*S    EENTRO =        -0.07272290
  eigenvalues    EBANDS =     -1179.63331357
  atomic energy  EATOM  =     26988.44278752
  Solvation contrib.  Ediel  =         0.00000000
  ---------------------------------------------------
  free energy    TOTEN  =      -261.86090039 eV

  energy without entropy =     -261.78817749  energy(sigma->0) =     -261.84271967


--------------------------------------------------------------------------------------------------------




----------------------------------------- Iteration    1(  16)  ---------------------------------------


    POTLOK:  cpu time    0.39: real time    0.39
    SETDIJ:  cpu time    0.05: real time    0.05
     EDDAV:  cpu time   30.22: real time   30.26
       DOS:  cpu time    0.00: real time    0.00
    CHARGE:  cpu time    1.38: real time    1.39
    MIXING:  cpu time    0.02: real time    0.02
    --------------------------------------------
      LOOP:  cpu time   32.06: real time   32.11

 eigenvalue-minimisations  :  4760
 total energy-change (2. order) :-0.2646593E-01  (-0.1048967E+00)
 number of electron     313.0000805 magnetization      51.2372396
 augmentation part      164.9323496 magnetization      42.9759998

 Broyden mixing:
  rms(total) = 0.10759E+01    rms(broyden)= 0.10758E+01
  rms(prec ) = 0.11162E+01
  weight for this iteration     100.00

 eigenvalues of (default mixing * dielectric matrix)
  average eigenvalue GAMMA=   0.3965
  1.3468  0.7516  0.7516  0.3991  0.3991  0.1652  0.1338  0.1338  0.1035  0.0834
  0.0932

 Free energy of the ion-electron system (eV)
  ---------------------------------------------------
  alpha Z        PSCENC =       329.76814779
  Ewald energy   TEWEN  =    106781.89951969
  -Hartree energ DENC   =   -132092.87231964
  -exchange      EXHF   =         0.00000000
  -V(xc)+E(xc)   XCENC  =       603.84973095
  PAW double counting   =     29382.66641176   -31080.69905362
  entropy T*S    EENTRO =        -0.06766635
  eigenvalues    EBANDS =     -1174.87492442
  atomic energy  EATOM  =     26988.44278752
  Solvation contrib.  Ediel  =         0.00000000
  ---------------------------------------------------
  free energy    TOTEN  =      -261.88736632 eV

  energy without entropy =     -261.81969997  energy(sigma->0) =     -261.87044973


--------------------------------------------------------------------------------------------------------




----------------------------------------- Iteration    1(  17)  ---------------------------------------


    POTLOK:  cpu time    0.42: real time    0.42
    SETDIJ:  cpu time    0.05: real time    0.05
     EDDAV:  cpu time   31.40: real time   31.44
       DOS:  cpu time    0.00: real time    0.00
    CHARGE:  cpu time    1.50: real time    1.51
    MIXING:  cpu time    0.02: real time    0.02
    --------------------------------------------
      LOOP:  cpu time   33.39: real time   33.43

 eigenvalue-minimisations  :  5016
 total energy-change (2. order) :-0.5909302E+00  (-0.7291325E-01)
 number of electron     313.0000805 magnetization      51.4205689
 augmentation part      165.1062317 magnetization      43.4674316

 Broyden mixing:
  rms(total) = 0.10637E+01    rms(broyden)= 0.10637E+01
  rms(prec ) = 0.11161E+01
  weight for this iteration     100.00

 eigenvalues of (default mixing * dielectric matrix)
  average eigenvalue GAMMA=   0.4072
  1.3684  0.8845  0.8845  0.4332  0.4332  0.1741  0.1541  0.1541  0.1119  0.1119
  0.0832  0.0925

 Free energy of the ion-electron system (eV)
  ---------------------------------------------------
  alpha Z        PSCENC =       329.76814779
  Ewald energy   TEWEN  =    106781.89951969
  -Hartree energ DENC   =   -132095.98097953
  -exchange      EXHF   =         0.00000000
  -V(xc)+E(xc)   XCENC  =       604.14569042
  PAW double counting   =     29441.12269620   -31138.91854169
  entropy T*S    EENTRO =        -0.05928412
  eigenvalues    EBANDS =     -1172.89833284
  atomic energy  EATOM  =     26988.44278752
  Solvation contrib.  Ediel  =         0.00000000
  ---------------------------------------------------
  free energy    TOTEN  =      -262.47829655 eV

  energy without entropy =     -262.41901243  energy(sigma->0) =     -262.46347552


--------------------------------------------------------------------------------------------------------




----------------------------------------- Iteration    1(  18)  ---------------------------------------


    POTLOK:  cpu time    0.42: real time    0.42
    SETDIJ:  cpu time    0.05: real time    0.05
     EDDAV:  cpu time   31.57: real time   31.61
       DOS:  cpu time    0.00: real time    0.00
    CHARGE:  cpu time    1.46: real time    1.46
    MIXING:  cpu time    0.02: real time    0.02
    --------------------------------------------
      LOOP:  cpu time   33.52: real time   33.56

 eigenvalue-minimisations  :  5032
 total energy-change (2. order) :-0.2439761E+00  (-0.6911773E-01)
 number of electron     313.0000811 magnetization      51.9163491
 augmentation part      165.2436311 magnetization      44.2738177

 Broyden mixing:
  rms(total) = 0.92070E+00    rms(broyden)= 0.92064E+00
  rms(prec ) = 0.97084E+00
  weight for this iteration     100.00

 eigenvalues of (default mixing * dielectric matrix)
  average eigenvalue GAMMA=   0.4777
  1.6648  1.0446  1.0446  0.6072  0.6072  0.4241  0.1618  0.1314  0.1314  0.1110
  0.1070  0.0833  0.0911

 Free energy of the ion-electron system (eV)
  ---------------------------------------------------
  alpha Z        PSCENC =       329.76814779
  Ewald energy   TEWEN  =    106781.89951969
  -Hartree energ DENC   =   -132098.70165336
  -exchange      EXHF   =         0.00000000
  -V(xc)+E(xc)   XCENC  =       604.45947151
  PAW double counting   =     29491.91066457   -31189.62557167
  entropy T*S    EENTRO =        -0.05976157
  eigenvalues    EBANDS =     -1170.81587709
  atomic energy  EATOM  =     26988.44278752
  Solvation contrib.  Ediel  =         0.00000000
  ---------------------------------------------------
  free energy    TOTEN  =      -262.72227261 eV

  energy without entropy =     -262.66251104  energy(sigma->0) =     -262.70733222


--------------------------------------------------------------------------------------------------------




----------------------------------------- Iteration    1(  19)  ---------------------------------------


    POTLOK:  cpu time    0.42: real time    0.42
    SETDIJ:  cpu time    0.05: real time    0.05
     EDDAV:  cpu time   33.59: real time   33.63
       DOS:  cpu time    0.00: real time    0.00
    CHARGE:  cpu time    1.71: real time    1.71
    MIXING:  cpu time    0.02: real time    0.02
    --------------------------------------------
      LOOP:  cpu time   35.80: real time   35.84

 eigenvalue-minimisations  :  5448
 total energy-change (2. order) :-0.4215827E+00  (-0.1020006E+00)
 number of electron     313.0000811 magnetization      52.1320125
 augmentation part      165.5745122 magnetization      44.8553811

 Broyden mixing:
  rms(total) = 0.11825E+01    rms(broyden)= 0.11824E+01
  rms(prec ) = 0.12683E+01
  weight for this iteration     100.00

 eigenvalues of (default mixing * dielectric matrix)
  average eigenvalue GAMMA=   0.4739
  1.9265  0.9986  0.9986  0.6579  0.6579  0.4338  0.1648  0.1449  0.1299  0.1299
  0.0833  0.1125  0.1044  0.0919

 Free energy of the ion-electron system (eV)
  ---------------------------------------------------
  alpha Z        PSCENC =       329.76814779
  Ewald energy   TEWEN  =    106781.89951969
  -Hartree energ DENC   =   -132109.82066213
  -exchange      EXHF   =         0.00000000
  -V(xc)+E(xc)   XCENC  =       605.23118651
  PAW double counting   =     29638.89162454   -31337.40110956
  entropy T*S    EENTRO =        -0.04782285
  eigenvalues    EBANDS =     -1160.10752683
  atomic energy  EATOM  =     26988.44278752
  Solvation contrib.  Ediel  =         0.00000000
  ---------------------------------------------------
  free energy    TOTEN  =      -263.14385532 eV

  energy without entropy =     -263.09603247  energy(sigma->0) =     -263.13189961


--------------------------------------------------------------------------------------------------------




----------------------------------------- Iteration    1(  20)  ---------------------------------------


    POTLOK:  cpu time    0.56: real time    0.55
    SETDIJ:  cpu time    0.08: real time    0.08
     EDDAV:  cpu time   31.23: real time   31.26
       DOS:  cpu time    0.00: real time    0.00
    CHARGE:  cpu time    1.43: real time    1.43
    MIXING:  cpu time    0.02: real time    0.02
    --------------------------------------------
      LOOP:  cpu time   33.31: real time   33.35

 eigenvalue-minimisations  :  4848
 total energy-change (2. order) : 0.4960831E+00  (-0.8420492E-01)
 number of electron     313.0000811 magnetization      52.3457352
 augmentation part      165.7287677 magnetization      45.2683618

 Broyden mixing:
  rms(total) = 0.48290E+00    rms(broyden)= 0.48276E+00
  rms(prec ) = 0.51170E+00
  weight for this iteration     100.00

 eigenvalues of (default mixing * dielectric matrix)
  average eigenvalue GAMMA=   0.4832
  1.9747  1.0090  1.0090  0.7031  0.7031  0.4582  0.4582  0.1617  0.1318  0.1318
  0.1224  0.0833  0.1056  0.1056  0.0909

 Free energy of the ion-electron system (eV)
  ---------------------------------------------------
  alpha Z        PSCENC =       329.76814779
  Ewald energy   TEWEN  =    106781.89951969
  -Hartree energ DENC   =   -132115.54672930
  -exchange      EXHF   =         0.00000000
  -V(xc)+E(xc)   XCENC  =       605.62674467
  PAW double counting   =     29696.22288429   -31394.99665975
  entropy T*S    EENTRO =        -0.06237869
  eigenvalues    EBANDS =     -1154.00208847
  atomic energy  EATOM  =     26988.44278752
  Solvation contrib.  Ediel  =         0.00000000
  ---------------------------------------------------
  free energy    TOTEN  =      -262.64777224 eV

  energy without entropy =     -262.58539356  energy(sigma->0) =     -262.63217757


--------------------------------------------------------------------------------------------------------




----------------------------------------- Iteration    1(  21)  ---------------------------------------


    POTLOK:  cpu time    0.42: real time    0.42
    SETDIJ:  cpu time    0.05: real time    0.05
     EDDAV:  cpu time   33.24: real time   33.27
       DOS:  cpu time    0.00: real time    0.00
    CHARGE:  cpu time    1.42: real time    1.42
    MIXING:  cpu time    0.02: real time    0.02
    --------------------------------------------
      LOOP:  cpu time   35.15: real time   35.19

 eigenvalue-minimisations  :  5464
 total energy-change (2. order) :-0.6029854E-01  (-0.4691615E-01)
 number of electron     313.0000810 magnetization      52.5764861
 augmentation part      165.8103774 magnetization      45.5852307

 Broyden mixing:
  rms(total) = 0.78458E+00    rms(broyden)= 0.78452E+00
  rms(prec ) = 0.84065E+00
  weight for this iteration     100.00

 eigenvalues of (default mixing * dielectric matrix)
  average eigenvalue GAMMA=   0.4769
[...]
     13     Co         -0.035         -0.033          0.938
     14     Co         -0.033         -0.034          0.930
     15     Co         -0.045         -0.042          0.935
     16     Co         -0.038         -0.041          0.927
     17     Co         -0.043         -0.037          0.938
     18     Co         -0.041         -0.035          0.941
     19     Co         -0.024         -0.021          0.936
     20     Co         -0.039         -0.035          0.940
     21     Co         -0.042         -0.036          0.944
     22     Co         -0.038         -0.034          0.934
     23     Co         -0.038         -0.032          0.934
     24     Co         -0.035         -0.027          0.941
     25     Co          0.026          0.022          1.062
     26     Co          0.022          0.025          1.070
     27     Co         -0.005          0.009          1.063
     28     Co          0.020          0.026          1.068
     29     Co          0.042          0.040          1.054
     30     Co          0.072          0.068          1.020
     31     Co          0.046          0.054          0.982
     32     Co          0.090          0.084          0.993
     33     C          -0.150         -0.128          0.832
     34     C          -0.005         -0.009          0.684
     35     C          -0.152         -0.127          0.821
     36     O          -0.185         -0.137          0.994
     37     H           0.054          0.036          0.839
     38     H           0.042          0.024          0.844
     39     H           0.051          0.038          0.742
     40     H           0.193          0.136          0.701
     41     H           0.028          0.018          0.822
     42     H           0.050          0.041          0.747
     43     H           0.061          0.041          0.791

  dDsC method for vdW energy calculation
  ---------------------------------------------------------------------------------------------

  Parameters of vdW forcefield:
            C6dDsC            XDM            ALPHAts        RELVOL
            (au)              (au)            (au)                
   ---------------------------------------------------------------
   Co        539.707         11.942         54.010          1.080
   Co        540.879         11.983         53.941          1.079
   Co        542.955         11.989         54.124          1.082
   Co        538.471         11.950         53.851          1.077
   Co        541.699         11.981         54.033          1.081
   Co        543.819         12.024         54.052          1.081
   Co        545.563         12.031         54.190          1.084
   Co        542.231         11.999         54.006          1.080
   Co        326.285          8.312         46.911          0.938
   Co        323.010          8.290         46.563          0.931
   Co        326.256          8.304         46.954          0.939
   Co        322.727          8.294         46.499          0.930
   Co        325.670          8.300         46.891          0.938
   Co        322.175          8.280         46.500          0.930
   Co        324.452          8.295         46.746          0.935
   Co        321.060          8.274         46.374          0.927
   Co        328.064          8.357         46.913          0.938
   Co        330.366          8.389         47.061          0.941
   Co        328.415          8.384         46.810          0.936
   Co        328.772          8.358         47.007          0.940
   Co        331.459          8.394         47.188          0.944
   Co        325.456          8.332         46.682          0.934
   Co        326.207          8.349         46.693          0.934
   Co        330.380          8.392         47.048          0.941
   Co        520.265         11.711         53.091          1.062
   Co        526.554         11.765         53.484          1.070
   Co        513.635         11.549         53.150          1.063
   Co        520.806         11.657         53.393          1.068
   Co        509.893         11.565         52.689          1.054
   Co        463.029         10.846         51.020          1.020
   Co        415.462         10.110         49.112          0.982
   Co        436.577         10.513         49.630          0.993
   C          46.446          5.563          9.979          0.832
   C          33.606          4.892          8.210          0.684
   C          45.438          5.512          9.852          0.821
   O          26.419          5.882          5.368          0.994
   H           7.072          2.238          3.776          0.839
   H           7.464          2.348          3.798          0.844
   H           5.022          1.796          3.341          0.742
   H           5.487          2.080          3.152          0.701
   H           7.445          2.406          3.698          0.822
   H           5.083          1.806          3.364          0.747
   H           6.300          2.116          3.558          0.791

  Number of pair interactions contributing to vdW energy:  325449
  Edisp (eV):   -7.01350
    FORVDW:  cpu time    3.85: real time    3.85

  FORCE on cell =-STRESS in cart. coord.  units (eV):
  Direction    XX          YY          ZZ          XY          YZ          ZX
  --------------------------------------------------------------------------------------
  Alpha Z   329.76815   329.76815   329.76815
  Ewald  121890.23020122567.55925************     2.63054  -112.23667     3.41163
  Hartree128013.84283128486.08096************     1.32742   -74.10739    -8.97824
  E(xc)   -1569.11522 -1569.07301 -1571.77837    -0.00458    -0.09303     0.02578
  Local  ************************255644.42386    -0.84304   184.37547     7.18764
  n-local  -233.93636  -227.12649  -250.82427     0.74452    -0.47899     0.74046
  augment  4994.62998  4992.50317  4991.14354     0.14982     0.31214    -1.19048
  Kinetic  2779.88510  2785.71846  2828.53310    -4.16020     2.20558    -1.05023
  Fock        0.00000     0.00000     0.00000     0.00000     0.00000     0.00000
  vdW        -8.87530    -8.82000    -4.47610     0.05260     0.03984     0.04003
  -------------------------------------------------------------------------------------
  Total     -25.23357   -24.19873    -7.95363    -0.10291     0.01695     0.18660
  in kB     -26.49121   -25.40479    -8.35004    -0.10804     0.01780     0.19590
  external pressure =      -20.08 kB  Pullay stress =        0.00 kB


 VOLUME and BASIS-vectors are now :
 -----------------------------------------------------------------------------
  energy-cutoff  :      400.00
  volume of cell :     1526.12
      direct lattice vectors                 reciprocal lattice vectors
     8.559999890  0.000000000  0.000000000     0.116822431  0.000000000  0.000000000
     0.000000000  8.019998610  0.000000000     0.000000000  0.124688301  0.000000000
     0.000000000  0.000000000 22.230000000     0.000000000  0.000000000  0.044984256

  length of vectors
     8.559999890  8.019998610 22.230000000     0.116822431  0.124688301  0.044984256


 FORCES acting on ions
    electron-ion (+dipol)            ewald-force                    non-local-force                 convergence-correction
 -----------------------------------------------------------------------------------------------
   0.433E+02 -.137E+01 0.197E+04   -.419E+02 0.136E+01 -.197E+04   -.120E+01 0.125E-01 -.422E+01   0.911E-02 -.458E-02 0.226E-01
   -.533E+02 0.396E+01 0.197E+04   0.520E+02 -.401E+01 -.197E+04   0.109E+01 0.278E-01 -.420E+01   0.176E-02 -.762E-03 0.212E-01
   0.428E+02 0.152E+01 0.198E+04   -.414E+02 -.149E+01 -.198E+04   -.113E+01 -.100E-01 -.417E+01   0.196E-01 0.472E-02 0.241E-01
   -.540E+02 -.401E+01 0.197E+04   0.526E+02 0.407E+01 -.197E+04   0.116E+01 -.414E-01 -.430E+01   0.226E-02 0.672E-03 0.287E-01
   0.521E+02 -.779E+00 0.197E+04   -.506E+02 0.812E+00 -.196E+04   -.122E+01 -.102E-01 -.420E+01   -.112E-01 -.734E-02 0.212E-01
   -.429E+02 0.460E+01 0.198E+04   0.414E+02 -.460E+01 -.197E+04   0.121E+01 0.279E-01 -.406E+01   0.125E-02 -.138E-01 0.458E-02
   0.537E+02 0.765E+00 0.197E+04   -.523E+02 -.835E+00 -.197E+04   -.115E+01 0.373E-01 -.401E+01   -.211E-01 0.717E-02 0.818E-02
   -.418E+02 -.472E+01 0.198E+04   0.404E+02 0.472E+01 -.197E+04   0.112E+01 -.393E-01 -.409E+01   0.997E-03 0.140E-01 0.173E-01
   -.131E+02 -.267E+01 0.855E+03   0.133E+02 0.268E+01 -.856E+03   -.289E+00 0.498E-02 0.823E+00   -.321E-02 -.704E-02 0.351E-01
   0.126E+02 0.838E+01 0.858E+03   -.128E+02 -.837E+01 -.860E+03   0.245E+00 0.114E-01 0.775E+00   -.270E-01 -.117E-01 0.263E-01
   -.171E+02 0.269E+01 0.871E+03   0.173E+02 -.269E+01 -.872E+03   -.250E+00 -.119E-01 0.848E+00   -.187E-01 0.784E-02 0.342E-01
   0.105E+02 -.836E+01 0.862E+03   -.106E+02 0.832E+01 -.864E+03   0.267E+00 0.155E-02 0.804E+00   -.205E-01 0.125E-01 0.324E-01
   0.286E+01 -.311E+01 0.874E+03   -.267E+01 0.311E+01 -.875E+03   -.269E+00 -.167E-01 0.840E+00   0.210E-02 -.147E-01 0.374E-01
   0.110E+01 0.120E+02 0.882E+03   -.137E+01 -.120E+02 -.884E+03   0.312E+00 -.220E-01 0.630E+00   0.296E-01 -.700E-02 0.357E-01
   0.970E+00 0.327E+01 0.890E+03   -.859E+00 -.328E+01 -.891E+03   -.159E+00 0.655E-02 0.211E+00   0.176E-01 0.129E-01 0.273E-01
   0.190E+01 -.118E+02 0.884E+03   -.218E+01 0.118E+02 -.885E+03   0.290E+00 0.392E-01 0.306E+00   0.225E-01 0.670E-02 0.426E-01
   -.461E+02 -.136E+02 -.525E+03   0.464E+02 0.135E+02 0.526E+03   -.345E+00 0.122E+00 -.894E+00   0.792E-02 -.108E-01 0.301E-01
   -.436E+01 0.217E+02 -.542E+03   0.390E+01 -.217E+02 0.543E+03   0.476E+00 0.224E-01 -.843E+00   -.816E-02 0.225E-02 0.232E-01
   -.545E+02 0.981E+01 -.450E+03   0.549E+02 -.984E+01 0.451E+03   -.402E+00 0.146E-01 -.476E+00   0.243E-01 0.102E-01 0.289E-01
   -.129E+02 -.217E+02 -.525E+03   0.124E+02 0.217E+02 0.526E+03   0.526E+00 -.305E-01 -.752E+00   -.110E-01 -.165E-02 0.216E-01
   -.162E+01 -.472E+01 -.557E+03   0.198E+01 0.474E+01 0.558E+03   -.353E+00 -.118E-01 -.833E+00   -.772E-02 -.118E-01 0.234E-01
   0.505E+02 0.314E+02 -.514E+03   -.509E+02 -.311E+02 0.515E+03   0.447E+00 -.246E+00 -.593E+00   0.646E-02 -.248E-01 0.309E-01
   0.154E+02 0.528E+01 -.517E+03   -.146E+02 -.529E+01 0.518E+03   -.697E+00 0.277E-02 -.715E+00   -.249E-01 0.122E-01 0.250E-01
   0.581E+02 -.304E+02 -.496E+03   -.584E+02 0.302E+02 0.497E+03   0.298E+00 0.234E+00 -.665E+00   0.205E-02 0.217E-01 0.290E-01
   0.317E+02 -.137E+02 -.167E+04   -.305E+02 0.136E+02 0.167E+04   -.110E+01 0.332E-01 0.368E+01   -.278E-02 -.554E-02 0.131E-02
   -.354E+02 0.340E+02 -.167E+04   0.343E+02 -.340E+02 0.166E+04   0.109E+01 -.657E-02 0.374E+01   -.187E-01 -.116E-01 0.106E-01
   0.151E+02 0.148E+02 -.161E+04   -.140E+02 -.147E+02 0.161E+04   -.103E+01 -.604E-01 0.315E+01   -.207E-01 0.477E-02 0.153E-02
   -.350E+02 -.356E+02 -.164E+04   0.338E+02 0.357E+02 0.164E+04   0.119E+01 -.486E-01 0.362E+01   -.155E-01 0.113E-01 0.308E-02
   0.905E+02 -.251E+02 -.162E+04   -.896E+02 0.252E+02 0.162E+04   -.964E+00 -.132E+00 0.386E+01   0.384E-02 -.101E-01 0.124E-01
   -.861E+02 0.895E+02 -.155E+04   0.850E+02 -.900E+02 0.154E+04   0.103E+01 0.509E+00 0.475E+01   0.269E-01 -.594E-02 0.137E-01
   0.143E+03 0.398E+02 -.144E+04   -.141E+03 -.403E+02 0.144E+04   -.219E+01 0.415E+00 -.165E+00   0.206E-01 0.982E-02 0.196E-01
   -.786E+02 -.117E+03 -.148E+04   0.778E+02 0.117E+03 0.148E+04   0.697E+00 -.628E+00 0.400E+01   0.145E-01 0.684E-02 0.802E-03
   0.137E+03 -.274E+02 -.952E+03   -.137E+03 0.279E+02 0.952E+03   0.365E+00 -.507E+00 -.344E+00   0.584E-03 0.954E-04 -.141E-03
   0.371E+02 0.554E+02 -.904E+03   -.423E+02 -.615E+02 0.900E+03   0.514E+01 0.615E+01 0.447E+01   0.440E-02 0.132E-02 0.122E-02
   -.623E+02 0.118E+03 -.955E+03   0.622E+02 -.118E+03 0.956E+03   0.182E+00 -.282E+00 -.259E+00   0.128E-02 -.103E-03 -.303E-02
   -.126E+03 -.186E+03 -.146E+04   0.109E+03 0.220E+03 0.147E+04   0.171E+02 -.334E+02 -.114E+02   -.475E-02 0.208E-02 -.113E-01
   0.568E+02 0.389E+02 -.228E+03   -.607E+02 -.428E+02 0.228E+03   0.383E+01 0.399E+01 0.359E+00   -.121E-03 0.630E-04 0.227E-03
   0.429E+02 -.522E+02 -.218E+03   -.451E+02 0.568E+02 0.216E+03   0.222E+01 -.460E+01 0.214E+01   0.345E-04 0.419E-03 -.121E-03
   0.886E+01 -.150E+02 -.264E+03   -.781E+01 0.159E+02 0.269E+03   -.107E+01 -.919E+00 -.514E+01   0.110E-03 -.130E-03 -.631E-03
   -.103E+03 0.104E+02 -.235E+03   0.111E+03 -.128E+02 0.235E+03   -.768E+01 0.239E+01 0.246E+00   0.186E-03 0.178E-03 -.180E-02
   -.598E+02 0.295E+02 -.217E+03   0.645E+02 -.308E+02 0.215E+03   -.461E+01 0.135E+01 0.242E+01   0.300E-03 -.135E-03 -.126E-02
   -.236E+02 0.473E+01 -.264E+03   0.248E+02 -.354E+01 0.269E+03   -.121E+01 -.121E+01 -.502E+01   0.333E-04 0.794E-04 -.893E-03
   0.272E+02 0.607E+02 -.235E+03   -.304E+02 -.652E+02 0.235E+03   0.323E+01 0.449E+01 -.132E+00   0.568E-03 -.212E-03 -.672E-03
 -----------------------------------------------------------------------------------------------
   -.162E+02 0.224E+02 0.196E+02   -.171E-12 0.142E-12 -.205E-11   0.162E+02 -.223E+02 -.198E+02   0.466E-02 0.364E-03 0.675E+00
 
 
 POSITION                                       TOTAL-FORCE (eV/Angst)
 -----------------------------------------------------------------------------------
      4.27999      4.01000      0.00000         0.231598     -0.006939      0.536586
      5.70701      6.01499      0.00000        -0.218397     -0.018368      0.544892
      4.27999      0.00000      0.00000         0.235970      0.019493      0.554164
      5.70701      2.00500      0.00000        -0.215245      0.017140      0.549038
      0.00000      4.01000      0.00000         0.222196      0.015164      0.520226
      1.42700      6.01499      0.00000        -0.248416      0.017933      0.516199
      0.00000      0.00000      0.00000         0.222409     -0.026160      0.515254
      1.42700      2.00500      0.00000        -0.253286     -0.024975      0.542358
      6.42000      4.01000      1.23500        -0.094344      0.011623     -0.493719
      7.84699      6.01499      1.23500         0.063299      0.016442     -0.524114
      6.42000      0.00000      1.23500        -0.057218      0.001161     -0.607869
      7.84699      2.00500      1.23500         0.094676     -0.023141     -0.520323
      2.14000      4.01000      1.23500        -0.078584     -0.027909     -0.555500
      3.56700      6.01499      1.23500         0.071992      0.008751     -0.522742
      2.14000      0.00000      1.23500        -0.029469      0.012937     -0.633117
      3.56700      2.00500      1.23500         0.031054      0.000389     -0.410744
      4.28307      4.00551      2.49887         0.000834      0.000487      0.001166
      5.68815      6.01984      2.50316         0.000835     -0.000502      0.002186
      4.27696      0.01122      2.47871        -0.002001      0.000005     -0.000972
      5.67918      2.00015      2.50536        -0.000008      0.000849     -0.000311
      0.01693      4.00108      2.50456        -0.000356      0.001081     -0.002805
      1.40707      6.02786      2.50124        -0.000142     -0.000153      0.000277
      0.04123      0.00720      2.50043         0.001183     -0.000153     -0.001325
      1.44185      1.98622      2.49937         0.002353      0.001429     -0.000146
      6.47181      4.01175      3.62266        -0.000183      0.001379     -0.002452
      7.79429      6.01324      3.62460         0.001179     -0.005044      0.002416
      6.49765      8.01353      3.59770        -0.000767     -0.001560      0.000786
      7.77790      2.00317      3.61814         0.001314      0.002899     -0.000162
      2.17038      4.01913      3.61205        -0.002498      0.002779      0.001095
      3.50436      6.01498      3.61391         0.004148      0.000212      0.000703
      2.18171      7.99042      3.71301        -0.000405      0.000503      0.000010
      3.52215      2.05162      3.70457        -0.005586      0.000455     -0.001066
      1.51673      0.60693      6.34025         0.010253      0.001506     -0.002599
      2.78033      0.20161      5.60227        -0.000762      0.003530      0.009956
      3.49238      7.07238      6.28444         0.003503     -0.000535     -0.010215
      3.67314      1.38981      5.65199         0.004392     -0.003068     -0.000737
      0.76743      7.82630      6.27064         0.002337      0.001979     -0.003454
      1.07873      1.52051      5.91367         0.001861      0.003491     -0.002722
      1.74704      0.79015      7.40725        -0.003336      0.003060     -0.001674
      4.60335      1.07178      5.61628         0.007443     -0.003200     -0.001697
      4.43410      6.80460      5.76774        -0.005225     -0.002161      0.001702
      3.74505      7.33508      7.33162         0.003249     -0.004633      0.002769
      2.84577      6.18245      6.30487        -0.001850      0.001820     -0.001318
 -----------------------------------------------------------------------------------
    total drift:                               -0.000455      0.015362      0.474229


--------------------------------------------------------------------------------------------------------



  FREE ENERGIE OF THE ION-ELECTRON SYSTEM (eV)
  ---------------------------------------------------
  free  energy   TOTEN  =      -269.99003744 eV

  energy  without entropy=     -269.93530010  energy(sigma->0) =     -269.97635310
 
 d Force = 0.2502356E-04[ 0.131E-04, 0.369E-04]  d Energy = 0.6061277E-04-0.356E-04
 d Force =-0.4594113E+00[-0.460E+00,-0.459E+00]  d Ewald  =-0.4594112E+00-0.737E-07


--------------------------------------------------------------------------------------------------------


    POTLOK:  cpu time    0.37: real time    0.37


--------------------------------------------------------------------------------------------------------


 stress matrix after NEB project (eV)
    -25.23357     -0.10291      0.18660
     -0.10291    -24.19873      0.01695
      0.18660      0.01695     -7.95363
  FORCES: max atom, RMS     0.010812    0.004165
  FORCE total and by dimension    0.027309    0.010253
  Stress total and by dimension   35.856143   25.233568
 Conjugate gradient step on ions:
 trial-energy change:   -0.000061  1 .order   -0.000025   -0.000037   -0.000013
  (g-gl).g = 0.679E-04      g.g   = 0.634E-04  gl.gl    = 0.779E-04
 g(Force)  = 0.634E-04   g(Stress)= 0.000E+00 ortho     =-0.447E-05
 gamma     =   0.87165
 trial     =   0.62048
 opt step  =   0.65322  (harmonic =   0.96231) maximal distance =0.00063530
 next E    =  -269.990038   (d E  =  -0.00006)


--------------------------------------------------------------------------------------------------------


  
 reached required accuracy - stopping structural energy minimisation
     LOOP+:  cpu time  228.64: real time  228.95
    4ORBIT:  cpu time    0.00: real time    0.00

 total amount of memory used by VASP on root node   203285. kBytes
========================================================================

   base      :      30000. kBytes
   nonlr-proj:       7758. kBytes
   fftplans  :       7367. kBytes
   grid      :      34170. kBytes
   one-center:       1337. kBytes
   wavefun   :     122653. kBytes
 
  
  
 General timing and accounting informations for this job:
 ========================================================
  
                  Total CPU time used (sec):     3025.076
                            User time (sec):     3023.004
                          System time (sec):        2.072
                         Elapsed time (sec):     3029.890
  
                   Maximum memory used (kb):      245260.
                   Average memory used (kb):           0.
  
                          Minor page faults:       431310
                          Major page faults:            0
                 Voluntary context switches:          431
