 vasp.5.3.5 31Mar14 (build Jan 31 2018 16:04:57) complex                        
  
 executed on             LinuxIFC date 2018.12.29  17:47:23
 running on    8 total cores
 distrk:  each k-point on    8 cores,    1 groups
 distr:  one band on NCORES_PER_BAND=   1 cores,    8 groups


--------------------------------------------------------------------------------------------------------


 INCAR:
 POTCAR:    PAW_PBE Co 02Aug2007                  
 POTCAR:    PAW_PBE C 08Apr2002                   
 POTCAR:    PAW_PBE O 08Apr2002                   
 POTCAR:    PAW_PBE H 15Jun2001                   

 ----------------------------------------------------------------------------- 
|                                                                             |
|           W    W    AA    RRRRR   N    N  II  N    N   GGGG   !!!           |
|           W    W   A  A   R    R  NN   N  II  NN   N  G    G  !!!           |
|           W    W  A    A  R    R  N N  N  II  N N  N  G       !!!           |
|           W WW W  AAAAAA  RRRRR   N  N N  II  N  N N  G  GGG   !            |
|           WW  WW  A    A  R   R   N   NN  II  N   NN  G    G                |
|           W    W  A    A  R    R  N    N  II  N    N   GGGG   !!!           |
|                                                                             |
|      For optimal performance we recommend to set                            |
|        NCORE= 4 - approx SQRT( number of cores)                             |
|      NCORE specifies how many cores store one orbital (NPAR=cpu/NCORE).     |
|      This setting can  greatly improve the performance of VASP for DFT.     |
|      The default, NPAR=number of cores might be grossly inefficient         |
|      on modern multi-core architectures or massively parallel machines.     |
|      Do your own testing !!!!                                               |
|      Unfortunately you need to use the default for GW and RPA calculations. |
|      (for HF NCORE is supported but not extensively tested yet)             |
|                                                                             |
 ----------------------------------------------------------------------------- 

 POTCAR:    PAW_PBE Co 02Aug2007                  
   VRHFIN =Co: d8 s1                                                            
   LEXCH  = PE                                                                  
   EATOM  =   813.3670 eV,   59.7808 Ry                                         
                                                                                
   TITEL  = PAW_PBE Co 02Aug2007                                                
   LULTRA =        F    use ultrasoft PP ?                                      
   IUNSCR =        1    unscreen: 0-lin 1-nonlin 2-no                           
   RPACOR =    2.000    partial core radius                                     
   POMASS =   58.933; ZVAL   =    9.000    mass and valenz                      
   RCORE  =    2.300    outmost cutoff radius                                   
   RWIGS  =    2.460; RWIGS  =    1.302    wigner-seitz radius (au A)           
   ENMAX  =  267.968; ENMIN  =  200.976 eV                                      
   RCLOC  =    1.203    cutoff for local pot                                    
   LCOR   =        T    correct aug charges                                     
   LPAW   =        T    paw PP                                                  
   EAUG   =  477.818                                                            
   DEXC   =    0.000                                                            
   RMAX   =    2.360    core radius for proj-oper                               
   RAUG   =    1.300    factor for augmentation sphere                          
   RDEP   =    2.393    radius for radial grids                                 
   RDEPT  =    1.864    core radius for aug-charge                              
                                                                                
   Atomic configuration                                                         
    9 entries                                                                   
     n  l   j            E        occ.                                          
     1  0  0.50     -7587.6674   2.0000                                         
     2  0  0.50      -893.6084   2.0000                                         
     2  1  1.50      -764.5805   6.0000                                         
     3  0  0.50       -97.5973   2.0000                                         
     3  1  1.50       -60.9648   6.0000                                         
     3  2  2.50        -4.2382   8.0000                                         
     4  0  0.50        -4.3746   1.0000                                         
     4  1  1.50        -4.0817   0.0000                                         
     4  3  2.50        -1.3606   0.0000                                         
   Description                                                                  
     l       E           TYP  RCUT    TYP  RCUT                                 
     2     -4.2382362     23  2.300                                             
     2     -5.5988188     23  2.300                                             
     0     -4.3745797     23  2.300                                             
     0      5.7660125     23  2.300                                             
     1     -2.7211652     23  2.300                                             
     1     16.9860234     23  2.300                                             
  local pseudopotential read in
  partial core-charges read in
  partial kinetic energy density read in
  atomic valenz-charges read in
  non local Contribution for L=           2  read in
    real space projection operators read in
  non local Contribution for L=           2  read in
    real space projection operators read in
  non local Contribution for L=           0  read in
    real space projection operators read in
  non local Contribution for L=           0  read in
    real space projection operators read in
  non local Contribution for L=           1  read in
    real space projection operators read in
  non local Contribution for L=           1  read in
    real space projection operators read in
    PAW grid and wavefunctions read in
 
   number of l-projection  operators is LMAX  =           6
   number of lm-projection operators is LMMAX =          18
 
 POTCAR:    PAW_PBE C 08Apr2002                   
   VRHFIN =C: s2p2                                                              
   LEXCH  = PE                                                                  
   EATOM  =   147.1560 eV,   10.8157 Ry                                         
                                                                                
   TITEL  = PAW_PBE C 08Apr2002                                                 
   LULTRA =        F    use ultrasoft PP ?                                      
   IUNSCR =        1    unscreen: 0-lin 1-nonlin 2-no                           
   RPACOR =    1.200    partial core radius                                     
   POMASS =   12.011; ZVAL   =    4.000    mass and valenz                      
   RCORE  =    1.500    outmost cutoff radius                                   
   RWIGS  =    1.630; RWIGS  =    0.863    wigner-seitz radius (au A)           
   ENMAX  =  400.000; ENMIN  =  300.000 eV                                      
   ICORE  =        2    local potential                                         
   LCOR   =        T    correct aug charges                                     
   LPAW   =        T    paw PP                                                  
   EAUG   =  644.873                                                            
   DEXC   =    0.000                                                            
   RMAX   =    1.529    core radius for proj-oper                               
   RAUG   =    1.300    factor for augmentation sphere                          
   RDEP   =    1.501    radius for radial grids                                 
   RDEPT  =    1.300    core radius for aug-charge                              
                                                                                
   Atomic configuration                                                         
    4 entries                                                                   
     n  l   j            E        occ.                                          
     1  0  0.50      -273.3789   2.0000                                         
     2  0  0.50       -13.7508   2.0000                                         
     2  1  0.50        -5.2854   2.0000                                         
     3  2  1.50        -5.4423   0.0000                                         
   Description                                                                  
     l       E           TYP  RCUT    TYP  RCUT                                 
     0    -13.7508458     23  1.200                                             
     0     -8.2022199     23  1.200                                             
     1     -5.2854383     23  1.500                                             
     1     34.0145650     23  1.500                                             
     2     -5.4423304      7  1.500                                             
  local pseudopotential read in
  partial core-charges read in
  partial kinetic energy density read in
  atomic valenz-charges read in
  non local Contribution for L=           0  read in
    real space projection operators read in
  non local Contribution for L=           0  read in
    real space projection operators read in
  non local Contribution for L=           1  read in
    real space projection operators read in
  non local Contribution for L=           1  read in
    real space projection operators read in
    PAW grid and wavefunctions read in
 
   number of l-projection  operators is LMAX  =           4
   number of lm-projection operators is LMMAX =           8
 
 POTCAR:    PAW_PBE O 08Apr2002                   
   VRHFIN =O: s2p4                                                              
   LEXCH  = PE                                                                  
   EATOM  =   432.3788 eV,   31.7789 Ry                                         
                                                                                
   TITEL  = PAW_PBE O 08Apr2002                                                 
   LULTRA =        F    use ultrasoft PP ?                                      
   IUNSCR =        1    unscreen: 0-lin 1-nonlin 2-no                           
   RPACOR =    1.200    partial core radius                                     
   POMASS =   16.000; ZVAL   =    6.000    mass and valenz                      
   RCORE  =    1.520    outmost cutoff radius                                   
   RWIGS  =    1.550; RWIGS  =    0.820    wigner-seitz radius (au A)           
   ENMAX  =  400.000; ENMIN  =  300.000 eV                                      
   ICORE  =        2    local potential                                         
   LCOR   =        T    correct aug charges                                     
   LPAW   =        T    paw PP                                                  
   EAUG   =  605.392                                                            
   DEXC   =    0.000                                                            
   RMAX   =    1.553    core radius for proj-oper                               
   RAUG   =    1.300    factor for augmentation sphere                          
   RDEP   =    1.550    radius for radial grids                                 
   RDEPT  =    1.329    core radius for aug-charge                              
                                                                                
   Atomic configuration                                                         
    4 entries                                                                   
     n  l   j            E        occ.                                          
     1  0  0.50      -514.6923   2.0000                                         
     2  0  0.50       -23.9615   2.0000                                         
     2  1  0.50        -9.0305   4.0000                                         
     3  2  1.50        -9.5241   0.0000                                         
   Description                                                                  
     l       E           TYP  RCUT    TYP  RCUT                                 
     0    -23.9615318     23  1.200                                             
     0     -9.5240782     23  1.200                                             
     1     -9.0304911     23  1.520                                             
     1      8.1634956     23  1.520                                             
     2     -9.5240782      7  1.500                                             
  local pseudopotential read in
  partial core-charges read in
  partial kinetic energy density read in
  kinetic energy density of atom read in
  atomic valenz-charges read in
  non local Contribution for L=           0  read in
    real space projection operators read in
  non local Contribution for L=           0  read in
    real space projection operators read in
  non local Contribution for L=           1  read in
    real space projection operators read in
  non local Contribution for L=           1  read in
    real space projection operators read in
    PAW grid and wavefunctions read in
 
   number of l-projection  operators is LMAX  =           4
   number of lm-projection operators is LMMAX =           8
 
 POTCAR:    PAW_PBE H 15Jun2001                   
   VRHFIN =H: ultrasoft test                                                    
   LEXCH  = PE                                                                  
   EATOM  =    12.4884 eV,    0.9179 Ry                                         
                                                                                
   TITEL  = PAW_PBE H 15Jun2001                                                 
   LULTRA =        F    use ultrasoft PP ?                                      
   IUNSCR =        0    unscreen: 0-lin 1-nonlin 2-no                           
   RPACOR =    0.000    partial core radius                                     
   POMASS =    1.000; ZVAL   =    1.000    mass and valenz                      
   RCORE  =    1.100    outmost cutoff radius                                   
   RWIGS  =    0.700; RWIGS  =    0.370    wigner-seitz radius (au A)           
   ENMAX  =  250.000; ENMIN  =  200.000 eV                                      
   RCLOC  =    0.701    cutoff for local pot                                    
   LCOR   =        T    correct aug charges                                     
   LPAW   =        T    paw PP                                                  
   EAUG   =  400.000                                                            
   RMAX   =    1.123    core radius for proj-oper                               
   RAUG   =    1.200    factor for augmentation sphere                          
   RDEP   =    1.112    radius for radial grids                                 
   RDEPT  =    0.926    core radius for aug-charge                              
                                                                                
   Atomic configuration                                                         
    2 entries                                                                   
     n  l   j            E        occ.                                          
     1  0  0.50        -6.4927   1.0000                                         
     2  1  0.50        -3.4015   0.0000                                         
   Description                                                                  
     l       E           TYP  RCUT    TYP  RCUT                                 
     0     -6.4927494     23  1.100                                             
     0      6.8029130     23  1.100                                             
     1     -4.0817478     23  1.100                                             
  local pseudopotential read in
  atomic valenz-charges read in
  non local Contribution for L=           0  read in
    real space projection operators read in
  non local Contribution for L=           0  read in
    real space projection operators read in
  non local Contribution for L=           1  read in
    real space projection operators read in
    PAW grid and wavefunctions read in
 
   number of l-projection  operators is LMAX  =           3
   number of lm-projection operators is LMMAX =           5
 
 Optimization of the real space projectors (new method)

 maximal supplied QI-value         = 16.25
 optimisation between [QCUT,QGAM] = [ 10.24, 20.48] = [ 29.35,117.42] Ry 
 Optimized for a Real-space Cutoff    1.34 Angstroem

   l    n(q)    QCUT    max X(q) W(low)/X(q) W(high)/X(q)  e(spline) 
   2      7    10.239    65.824    0.41E-03    0.10E-02    0.11E-06
   2      7    10.239    61.429    0.41E-03    0.10E-02    0.11E-06
   0      8    10.239    56.174    0.42E-03    0.17E-03    0.96E-07
   0      8    10.239    31.263    0.38E-03    0.16E-03    0.87E-07
   1      8    10.239    19.828    0.20E-03    0.56E-03    0.13E-06
   1      8    10.239    15.139    0.15E-03    0.46E-03    0.11E-06
 Optimization of the real space projectors (new method)

 maximal supplied QI-value         = 25.13
 optimisation between [QCUT,QGAM] = [ 10.05, 20.36] = [ 28.30,116.06] Ry 
 Optimized for a Real-space Cutoff    1.30 Angstroem

   l    n(q)    QCUT    max X(q) W(low)/X(q) W(high)/X(q)  e(spline) 
   0      8    10.053   115.676    0.49E-03    0.72E-03    0.18E-06
   0      8    10.053    87.132    0.49E-03    0.71E-03    0.18E-06
   1      7    10.053     4.429    0.32E-03    0.31E-03    0.18E-06
   1      7    10.053     2.733    0.23E-03    0.19E-03    0.20E-06
 Optimization of the real space projectors (new method)

 maximal supplied QI-value         = 24.76
 optimisation between [QCUT,QGAM] = [ 10.15, 20.30] = [ 28.85,115.39] Ry 
 Optimized for a Real-space Cutoff    1.38 Angstroem

   l    n(q)    QCUT    max X(q) W(low)/X(q) W(high)/X(q)  e(spline) 
   0      8    10.150    20.381    0.22E-03    0.32E-03    0.29E-06
   0      8    10.150    15.268    0.23E-03    0.35E-03    0.30E-06
   1      8    10.150     5.964    0.46E-03    0.53E-03    0.21E-06
   1      8    10.150     5.382    0.38E-03    0.45E-03    0.19E-06
 Optimization of the real space projectors (new method)

 maximal supplied QI-value         = 34.20
 optimisation between [QCUT,QGAM] = [  9.92, 20.18] = [ 27.55,114.04] Ry 
 Optimized for a Real-space Cutoff    1.26 Angstroem

   l    n(q)    QCUT    max X(q) W(low)/X(q) W(high)/X(q)  e(spline) 
   0      8     9.919    19.460    0.50E-03    0.23E-03    0.29E-06
   0      8     9.919    12.209    0.48E-03    0.23E-03    0.28E-06
   1      7     9.919     4.655    0.17E-03    0.75E-03    0.30E-06
  PAW_PBE Co 02Aug2007                  :
 energy of atom  1       EATOM= -813.3670
 kinetic energy error for atom=    0.0093 (will be added to EATOM!!)
  PAW_PBE C 08Apr2002                   :
 energy of atom  2       EATOM= -147.1560
 kinetic energy error for atom=    0.0288 (will be added to EATOM!!)
  PAW_PBE O 08Apr2002                   :
 energy of atom  3       EATOM= -432.3788
 kinetic energy error for atom=    0.1156 (will be added to EATOM!!)
  PAW_PBE H 15Jun2001                   :
 energy of atom  4       EATOM=  -12.4884
 kinetic energy error for atom=    0.0098 (will be added to EATOM!!)
 
 
 POSCAR: Co C O H                                
  positions in direct lattice
  velocities in cartesian coordinates
 exchange correlation table for  LEXCH =        8
   RHO(1)=    0.500       N(1)  =     2000
   RHO(2)=  100.500       N(2)  =     4000

 VTST: version 3.1, (03/28/14)

 CHAIN: initializing optimizer
 
 OPT: Using VASP Conjugate-Gradient optimizer
 CHAIN: Read ICHAIN            0
 
 POSCAR: Co C O H                                
  positions in direct lattice
  velocities in cartesian coordinates
 


--------------------------------------------------------------------------------------------------------


 ion  position               nearest neighbor table
   1  0.500  0.500  0.000-  16 2.46  14 2.46   4 2.46   2 2.46  13 2.47   9 2.47  17 2.49
   2  0.667  0.750  0.000-   9 2.46  11 2.46   1 2.46   3 2.46  10 2.47  14 2.47  18 2.50
   3  0.500  0.000  0.000-  19 2.44  16 2.46  14 2.46   4 2.46   2 2.46  15 2.47  11 2.47
   4  0.667  0.250  0.000-   9 2.46  11 2.46   1 2.46   3 2.46  12 2.47  16 2.47  20 2.49
   5  0.000  0.500  0.000-  12 2.46  10 2.46   8 2.46   6 2.46   9 2.47  13 2.47  21 2.50
   6  0.167  0.750  0.000-  13 2.46  15 2.46   5 2.46   7 2.46  14 2.47  10 2.47  22 2.50
   7  0.000  0.000  0.000-  12 2.46  10 2.46   8 2.46   6 2.46  11 2.47  15 2.47  23 2.50
   8  0.167  0.250  0.000-  24 2.46  13 2.46  15 2.46   5 2.46   7 2.46  16 2.47  12 2.47
   9  0.750  0.500  0.056-  25 2.39   4 2.46   2 2.46  12 2.46  10 2.46  17 2.47   5 2.47   1 2.47
                            18 2.48  20 2.49  21 2.50
  10  0.917  0.750  0.056-  26 2.39   5 2.46   7 2.46   9 2.46  11 2.46   2 2.47   6 2.47  22 2.47
                            21 2.48  23 2.49  18 2.50
  11  0.750  0.000  0.056-  27 2.38  19 2.45   4 2.46   2 2.46  12 2.46  10 2.46   7 2.47   3 2.47
                            20 2.48  18 2.48  23 2.51
  12  0.917  0.250  0.056-  28 2.38   5 2.46   7 2.46   9 2.46  11 2.46  24 2.46   4 2.47   8 2.47
                            21 2.48  23 2.48  20 2.51
  13  0.250  0.500  0.056-  29 2.37  24 2.45   8 2.46   6 2.46  16 2.46  14 2.46   1 2.47   5 2.47
                            21 2.48  17 2.49  22 2.50
  14  0.417  0.750  0.056-  30 2.36  19 2.44   1 2.46   3 2.46  13 2.46  15 2.46   6 2.47   2 2.47
                            18 2.48  17 2.49  22 2.50
  15  0.250  0.000  0.056-  24 2.46  23 2.46   8 2.46   6 2.46  16 2.46  14 2.46  19 2.46  22 2.47
                            31 2.47   3 2.47   7 2.47
  16  0.417  0.250  0.056-  20 2.45  19 2.45  32 2.46   1 2.46   3 2.46  13 2.46  15 2.46  17 2.47
                            24 2.47   8 2.47   4 2.47
  17  0.502  0.498  0.112-  29 2.38  30 2.41  20 2.43  32 2.43  25 2.45  18 2.46  16 2.47   9 2.47
                            14 2.49   1 2.49  13 2.49
  18  0.665  0.750  0.113-  26 2.38  27 2.42  25 2.43  30 2.44  19 2.44  17 2.46  14 2.48  11 2.48
                             9 2.48  10 2.50   2 2.50
  19  0.501  0.999  0.110-  20 2.44   3 2.44  14 2.44  18 2.44  30 2.45  11 2.45  16 2.45  15 2.46
                            31 2.47  27 2.49  32 2.50
  20  0.663  0.249  0.112-  28 2.39  17 2.43  27 2.43  25 2.44  19 2.44  32 2.45  16 2.45  11 2.48
                             9 2.49   4 2.49  12 2.51
  21  0.002  0.500  0.113-  25 2.38  28 2.42  26 2.43  29 2.44  24 2.45  22 2.46  13 2.48  12 2.48
                            10 2.48   9 2.50   5 2.50
  22  0.165  0.752  0.112-  30 2.37  23 2.42  31 2.42  29 2.43  26 2.45  21 2.46  15 2.47  10 2.47
                            13 2.50   6 2.50  14 2.50
  23  0.004  0.000  0.113-  27 2.38  22 2.42  28 2.43  26 2.44  24 2.44  31 2.45  15 2.46  12 2.48
                            10 2.49   7 2.50  11 2.51
  24  0.166  0.250  0.111-  29 2.43  23 2.44  21 2.45  32 2.45  13 2.45  15 2.46   8 2.46  12 2.46
                            16 2.47  28 2.49  31 2.49
  25  0.756  0.500  0.163-  21 2.38   9 2.39  28 2.39  26 2.40  18 2.43  20 2.44  17 2.45
  26  0.910  0.750  0.163-  18 2.38  10 2.39  27 2.39  25 2.40  21 2.43  23 2.44  22 2.45
  27  0.758  1.000  0.162-  11 2.38  23 2.38  28 2.39  26 2.39  18 2.42  20 2.43  19 2.49
  28  0.909  0.250  0.162-  12 2.38  20 2.39  27 2.39  25 2.39  21 2.42  23 2.43  24 2.49
  29  0.256  0.500  0.162-  13 2.37  17 2.38  30 2.39  32 2.40  22 2.43  24 2.43  21 2.44
  30  0.411  0.748  0.162-  14 2.36  22 2.37  29 2.39  17 2.41  31 2.42  18 2.44  19 2.45
  31  0.253  0.998  0.166-  36 1.93  30 2.42  22 2.42  23 2.45  32 2.46  15 2.47  19 2.47  24 2.49

  32  0.414  0.253  0.166-  36 1.92  29 2.40  17 2.43  20 2.45  24 2.45  16 2.46  31 2.46  19 2.50

  33  0.388  0.911  0.311-  39 1.10  38 1.10  37 1.10  34 1.52
  34  0.463  0.049  0.274-  40 1.12  36 1.44  33 1.52  35 1.52
  35  0.525  0.192  0.312-  42 1.10  41 1.10  43 1.10  34 1.52
  36  0.351  0.114  0.233-  34 1.44  32 1.92  31 1.93
  37  0.345  0.811  0.281-  33 1.10
  38  0.287  0.960  0.336-  33 1.10
  39  0.472  0.856  0.343-  33 1.10
  40  0.562  0.995  0.248-  34 1.12
  41  0.429  0.251  0.338-  35 1.10
  42  0.614  0.147  0.344-  35 1.10
  43  0.579  0.287  0.283-  35 1.10
 
  LATTYP: Found a simple orthorhombic cell.
 ALAT       =     8.0199986100
 B/A-ratio  =     1.0673318421
 C/A-ratio  =     2.7718209293
  
  Lattice vectors:
  
 A1 = (   0.0000000000,  -8.0199986100,   0.0000000000)
 A2 = (  -8.5599998900,   0.0000000000,   0.0000000000)
 A3 = (   0.0000000000,   0.0000000000, -22.2300000000)


Analysis of symmetry for initial positions (statically):
=====================================================================
 Subroutine PRICEL returns:
 Original cell was already a primitive cell.
 

 Routine SETGRP: Setting up the symmetry group for a 
 simple orthorhombic supercell.


 Subroutine GETGRP returns: Found  1 space group operations
 (whereof  1 operations were pure point group operations)
 out of a pool of  8 trial point group operations.


The static configuration has the point symmetry C_1 .


Analysis of symmetry for dynamics (positions and initial velocities):
=====================================================================
 Subroutine PRICEL returns:
 Original cell was already a primitive cell.
 

 Routine SETGRP: Setting up the symmetry group for a 
 simple orthorhombic supercell.


 Subroutine GETGRP returns: Found  1 space group operations
 (whereof  1 operations were pure point group operations)
 out of a pool of  8 trial point group operations.


The dynamic configuration has the point symmetry C_1 .


Analysis of constrained symmetry for selective dynamics:
=====================================================================
 Subroutine PRICEL returns:
 Original cell was already a primitive cell.
 

 Routine SETGRP: Setting up the symmetry group for a 
 simple orthorhombic supercell.


 Subroutine GETGRP returns: Found  1 space group operations
 (whereof  1 operations were pure point group operations)
 out of a pool of  8 trial point group operations.


The constrained configuration has the point symmetry C_1 .


Analysis of magnetic symmetry:
=====================================================================
 Subroutine PRICEL returns:
 Original cell was already a primitive cell.
 

 Subroutine MAGSYM returns: Found  1 space group operations
 (whereof  1 operations were pure point group operations)
 out of a pool of  1 trial space group operations
 (whereof  1 operations were pure point group operations)
 and found also     1 'primitive' translations


The magnetic configuration has the point symmetry C_1 .
 
 
 KPOINTS:  Automatic mesh                         

Automatic generation of k-mesh.
Space group operators:
 irot       det(A)        alpha          n_x          n_y          n_z        tau_x        tau_y        tau_z
    1     1.000000     0.000000     1.000000     0.000000     0.000000     0.000000     0.000000     0.000000
 
 Subroutine IBZKPT returns following result:
 ===========================================
 
 Found      5 irreducible k-points:
 
 Following reciprocal coordinates:
            Coordinates               Weight
  0.000000  0.000000  0.000000      1.000000
  0.333333  0.000000  0.000000      2.000000
  0.000000  0.333333  0.000000      2.000000
  0.333333  0.333333  0.000000      2.000000
 -0.333333  0.333333  0.000000      2.000000
 
 Following cartesian coordinates:
            Coordinates               Weight
  0.000000  0.000000  0.000000      1.000000
  0.096184  0.000000  0.000000      2.000000
  0.000000  0.102660  0.000000      2.000000
  0.096184  0.102660  0.000000      2.000000
 -0.096184  0.102660  0.000000      2.000000
 


--------------------------------------------------------------------------------------------------------




 Dimension of arrays:
   k-points           NKPTS =      5   k-points in BZ     NKDIM =      5   number of bands    NBANDS=    216
   number of dos      NEDOS =    301   number of ions     NIONS =     43
   non local maximal  LDIM  =      6   non local SUM 2l+1 LMDIM =     18
   total plane-waves  NPLWV = 188160
   max r-space proj   IRMAX =   1408   max aug-charges    IRDMAX=   5061
   dimension x,y,z NGX =    42 NGY =   40 NGZ =  112
   dimension x,y,z NGXF=    84 NGYF=   80 NGZF=  224
   support grid    NGXF=    84 NGYF=   80 NGZF=  224
   ions per type =              32   3   1   7
 NGX,Y,Z   is equivalent  to a cutoff of   8.16,  8.29,  8.38 a.u.
 NGXF,Y,Z  is equivalent  to a cutoff of  16.31, 16.58, 16.75 a.u.


 I would recommend the setting:
   dimension x,y,z NGX =    42 NGY =   39 NGZ =  109
 SYSTEM =  unknown system                          
 POSCAR =  Co C O H                                

 Startparameter for this run:
   NWRITE =      2    write-flag & timer
   PREC   = normal    normal or accurate (medium, high low for compatibility)
   ISTART =      0    job   : 0-new  1-cont  2-samecut
   ICHARG =      2    charge: 1-file 2-atom 10-const
   ISPIN  =      2    spin polarized calculation?
   LNONCOLLINEAR =      F non collinear calculations
   LSORBIT =      F    spin-orbit coupling
   INIWAV =      1    electr: 0-lowe 1-rand  2-diag
   LASPH  =      F    aspherical Exc in radial PAW
   METAGGA=      F    non-selfconsistent MetaGGA calc.
   LSOL =      F    Solvation

 Electronic Relaxation 1
   ENCUT  =  400.0 eV  29.40 Ry    5.42 a.u.  13.96 13.08 36.25*2*pi/ulx,y,z
   ENINI  =  400.0     initial cutoff
   ENAUG  =  644.9 eV  augmentation charge cutoff
   NELM   =     60;   NELMIN=  2; NELMDL= -5     # of ELM steps 
   EDIFF  = 0.1E-05   stopping-criterion for ELM
   LREAL  =      T    real-space projection
   NLSPLINE    = F    spline interpolate recip. space projectors
   LCOMPAT=      F    compatible to vasp.4.4
   GGA_COMPAT  = T    GGA compatible to vasp.4.4-vasp.4.6
   LMAXPAW     = -100 max onsite density
   LMAXMIX     =    2 max onsite mixed and CHGCAR
   VOSKOWN=      0    Vosko Wilk Nusair interpolation
   ROPT   =   -0.00050  -0.00050  -0.00050  -0.00050
 Ionic relaxation
   EDIFFG = -.1E-01   stopping-criterion for IOM
   NSW    =    400    number of steps for IOM
   NBLOCK =      1;   KBLOCK =    400    inner block; outer block 
   IBRION =      2    ionic relax: 0-MD 1-quasi-New 2-CG
   NFREE  =      1    steps in history (QN), initial steepest desc. (CG)
   ISIF   =      2    stress and relaxation
   IWAVPR =     11    prediction:  0-non 1-charg 2-wave 3-comb
   ISYM   =      2    0-nonsym 1-usesym 2-fastsym
   LCORR  =      T    Harris-Foulkes like correction to forces

   POTIM  = 0.5000    time-step for ionic-motion
   TEIN   =    0.0    initial temperature
   TEBEG  =    0.0;   TEEND  =   0.0 temperature during run
   SMASS  =  -3.00    Nose mass-parameter (am)
   estimated Nose-frequenzy (Omega)   =  0.10E-29 period in steps =****** mass=  -0.167E-26a.u.
   SCALEE = 1.0000    scale energy and forces
   NPACO  =    256;   APACO  = 16.0  distance and # of slots for P.C.
   PSTRESS=    0.0 pullay stress

  Mass of Ions in am
   POMASS =  58.93 12.01 16.00  1.00
  Ionic Valenz
   ZVAL   =   9.00  4.00  6.00  1.00
  Atomic Wigner-Seitz radii
   RWIGS  =  -1.00 -1.00 -1.00 -1.00
  virtual crystal weights 
   VCA    =   1.00  1.00  1.00  1.00
   NELECT =     313.0000    total number of electrons
   NUPDOWN=      -1.0000    fix difference up-down

 DOS related values:
   EMIN   =  10.00;   EMAX   =-10.00  energy-range for DOS
   EFERMI =   0.00
   ISMEAR =     2;   SIGMA  =   0.20  broadening in eV -4-tet -1-fermi 0-gaus

 Electronic relaxation 2 (details)
   IALGO  =     38    algorithm
   LDIAG  =      T    sub-space diagonalisation (order eigenvalues)
   LSUBROT=      F    optimize rotation matrix (better conditioning)
   TURBO    =      0    0=normal 1=particle mesh
   IRESTART =      0    0=no restart 2=restart with 2 vectors
   NREBOOT  =      0    no. of reboots
   NMIN     =      0    reboot dimension
   EREF     =   0.00    reference energy to select bands
   IMIX   =      4    mixing-type and parameters
     AMIX     =   0.40;   BMIX     =  1.00
     AMIX_MAG =   1.60;   BMIX_MAG =  1.00
     AMIN     =   0.10
     WC   =   100.;   INIMIX=   1;  MIXPRE=   1;  MAXMIX= -45

 Intra band minimization:
   WEIMIN = 0.0010     energy-eigenvalue tresh-hold
   EBREAK =  0.12E-08  absolut break condition
   DEPER  =   0.30     relativ break condition  

   TIME   =   0.40     timestep for ELM

  volume/ion in A,a.u.               =      35.49       239.51
  Fermi-wavevector in a.u.,A,eV,Ry     =   0.965444  1.824425 12.681748  0.932082
  Thomas-Fermi vector in A             =   2.095161
 
 Write flags
   LWAVE  =      F    write WAVECAR
   LCHARG =      F    write CHGCAR
   LVTOT  =      F    write LOCPOT, total local potential
   LVHAR  =      F    write LOCPOT, Hartree potential only
   LELF   =      F    write electronic localiz. function (ELF)
   LORBIT =      0    0 simple, 1 ext, 2 COOP (PROOUT)


 Dipole corrections
   LMONO  =      F    monopole corrections only (constant potential shift)
   LDIPOL =      F    correct potential (dipole corrections)
   IDIPOL =      3    1-x, 2-y, 3-z, 4-all directions 
   EPSILON=  1.0000000 bulk dielectric constant

 Exchange correlation treatment:
   GGA     =    PE    GGA type
   LEXCH   =     8    internal setting for exchange type
   VOSKOWN=      0    Vosko Wilk Nusair interpolation
   LHFCALC =     F    Hartree Fock is set to
   LHFONE  =     F    Hartree Fock one center treatment
   AEXX    =    0.0000 exact exchange contribution

 Linear response parameters
   LEPSILON=     F    determine dielectric tensor
   LRPA    =     F    only Hartree local field effects (RPA)
   LNABLA  =     F    use nabla operator in PAW spheres
   LVEL    =     F    velocity operator in full k-point grid
   LINTERFAST=   F  fast interpolation
   KINTER  =     0    interpolate to denser k-point grid
   CSHIFT  =0.1000    complex shift for real part using Kramers Kronig
   OMEGAMAX=  -1.0    maximum frequency
   DEG_THRESHOLD= 0.2000000E-02 threshold for treating states as degnerate
   RTIME   =    0.100 relaxation time in fs

 Orbital magnetization related:
   ORBITALMAG=     F  switch on orbital magnetization
   LCHIMAG   =     F  perturbation theory with respect to B field
   DQ        =  0.001000  dq finite difference perturbation B field



--------------------------------------------------------------------------------------------------------


 conjugate gradient relaxation of ions
   using selective dynamics as specified on POSCAR
 charge density and potential will be updated during run
 spin polarized calculation
 Variant of blocked Davidson
 Davidson routine will perform the subspace rotation
 perform sub-space diagonalisation
    after iterative eigenvector-optimisation
 modified Broyden-mixing scheme, WC =      100.0
 initial mixing is a Kerker type mixing with AMIX =  0.4000 and BMIX =      1.0000
 Hartree-type preconditioning will be used
 using additional bands           59
 real space projection scheme for non local part
 use partial core corrections
 calculate Harris-corrections to forces 
   (improved forces if not selfconsistent)
 use gradient corrections 
 use of overlap-Matrix (Vanderbilt PP)
 Methfessel and Paxton  Order N= 2 SIGMA  =   0.20


--------------------------------------------------------------------------------------------------------


  energy-cutoff  :      400.00
  volume of cell :     1526.12
      direct lattice vectors                 reciprocal lattice vectors
     8.559999890  0.000000000  0.000000000     0.116822431  0.000000000  0.000000000
     0.000000000  8.019998610  0.000000000     0.000000000  0.124688301  0.000000000
     0.000000000  0.000000000 22.230000000     0.000000000  0.000000000  0.044984256

  length of vectors
     8.559999890  8.019998610 22.230000000     0.116822431  0.124688301  0.044984256


 
 k-points in units of 2pi/SCALE and weight:  Automatic mesh                         
   0.00000000  0.00000000  0.00000000       0.111
   0.09618380  0.00000000  0.00000000       0.222
   0.00000000  0.10266003  0.00000000       0.222
   0.09618380  0.10266003  0.00000000       0.222
  -0.09618380  0.10266003  0.00000000       0.222
 
 k-points in reciprocal lattice and weights:  Automatic mesh                         
   0.00000000  0.00000000  0.00000000       0.111
   0.33333333  0.00000000  0.00000000       0.222
   0.00000000  0.33333333  0.00000000       0.222
   0.33333333  0.33333333  0.00000000       0.222
  -0.33333333  0.33333333  0.00000000       0.222
 
 position of ions in fractional coordinates (direct lattice) 
   0.49999899  0.49999954  0.00000000
   0.66670668  0.74999931  0.00000000
   0.49999899  0.00000000  0.00000000
   0.66670668  0.25000008  0.00000000
   0.00000000  0.49999954  0.00000000
   0.16670567  0.74999931  0.00000000
   0.00000000  0.00000000  0.00000000
   0.16670567  0.25000008  0.00000000
   0.74999993  0.49999954  0.05555556
   0.91670473  0.74999931  0.05555556
   0.74999993  0.00000000  0.05555556
   0.91670473  0.25000008  0.05555556
   0.25000007  0.49999954  0.05555556
   0.41670574  0.74999931  0.05555556
   0.25000007  0.00000000  0.05555556
   0.41670574  0.25000008  0.05555556
   0.50164019  0.49835751  0.11212708
   0.66525501  0.75004292  0.11257426
   0.50102298  0.99905289  0.10982337
   0.66254874  0.24938306  0.11213270
   0.00175590  0.49985024  0.11264385
   0.16473050  0.75243362  0.11248795
   0.00375581  0.00045608  0.11250923
   0.16645659  0.25017393  0.11057357
   0.75588374  0.49962768  0.16293285
   0.91036337  0.74985373  0.16305921
   0.75767916  0.99967947  0.16248687
   0.90906733  0.25006245  0.16241607
   0.25571007  0.50020463  0.16213227
   0.41081095  0.74801181  0.16171573
   0.25322565  0.99764010  0.16643633
   0.41350631  0.25279598  0.16620102
   0.38761137  0.91116063  0.31076682
   0.46316671  0.04933183  0.27433359
   0.52520530  0.19205801  0.31225716
   0.35068339  0.11440441  0.23256283
   0.34546500  0.81145227  0.28056235
   0.28675230  0.95993606  0.33591308
   0.47157383  0.85645800  0.34257556
   0.56167914  0.99503647  0.24772938
   0.42935186  0.25077535  0.33750359
   0.61381138  0.14712141  0.34419143
   0.57941559  0.28666853  0.28305836
 
 position of ions in cartesian coordinates  (Angst):
   4.27999130  4.00999560  0.00000000
   5.70700910  6.01499340  0.00000000
   4.27999130  0.00000000  0.00000000
   5.70700910  2.00500027  0.00000000
   0.00000000  4.00999560  0.00000000
   1.42700051  6.01499340  0.00000000
   0.00000000  0.00000000  0.00000000
   1.42700051  2.00500027  0.00000000
   6.41999930  4.00999560  1.23500000
   7.84699240  6.01499340  1.23500000
   6.41999930  0.00000000  1.23500000
   7.84699240  2.00500027  1.23500000
   2.14000059  4.00999560  1.23500000
   3.56700110  6.01499340  1.23500000
   2.14000059  0.00000000  1.23500000
   3.56700110  2.00500027  1.23500000
   4.29403993  3.99682656  2.49258508
   5.69458281  6.01534320  2.50252579
   4.28875669  8.01240278  2.44137357
   5.67141711  2.00005176  2.49270986
   0.01503047  4.00879823  2.50407281
   1.41009305  6.03451658  2.50060717
   0.03214971  0.00365777  2.50108027
   1.42486843  2.00639457  2.45805035
   6.47036474  4.00701333  3.62199715
   7.79271039  6.01382588  3.62480617
   6.48573352  8.01742797  3.61208316
   7.78161623  2.00550052  3.61050914
   2.18887816  4.01164041  3.60420029
   3.51654166  5.99905366  3.59494070
   2.16761151  8.00107224  3.69987973
   3.53961401  2.02742337  3.69464867
   3.31795332  7.30750698  6.90834649
   3.96470698  0.39564120  6.09843565
   4.49575730  1.54030499  6.94147668
   3.00184982  0.91752321  5.16987179
   2.95718038  6.50784605  6.23690098
   2.45459965  7.69868586  7.46734771
   4.03667195  6.86879194  7.61545460
   4.80797341  7.98019107  5.50702415
   3.67525189  2.01121794  7.50270486
   5.25422533  1.17991351  7.65137547
   4.95979737  2.29908121  6.29238743
 


--------------------------------------------------------------------------------------------------------


 k-point  1 :   0.0000 0.0000 0.0000  plane waves:   27673
 k-point  2 :   0.3333 0.0000 0.0000  plane waves:   27720
 k-point  3 :   0.0000 0.3333 0.0000  plane waves:   27710
 k-point  4 :   0.3333 0.3333 0.0000  plane waves:   27742
 k-point  5 :  -0.3333 0.3333 0.0000  plane waves:   27742

 maximum and minimum number of plane-waves per node :     27742    27673

 maximum number of plane-waves:     27742
 maximum index in each direction: 
   IXMAX=   14   IYMAX=   13   IZMAX=   36
   IXMIN=  -14   IYMIN=  -13   IZMIN=  -36

 WARNING: aliasing errors must be expected set NGX to  58 to avoid them
 WARNING: aliasing errors must be expected set NGY to  54 to avoid them
 WARNING: aliasing errors must be expected set NGZ to 146 to avoid them
 aliasing errors are usually negligible using standard VASP settings
 and one can safely disregard these warnings

 serial   3D FFT for wavefunctions
 parallel 3D FFT for charge:
    minimum data exchange during FFTs selected (reduces bandwidth)


 total amount of memory used by VASP on root node   203281. kBytes
========================================================================

   base      :      30000. kBytes
   nonlr-proj:       7754. kBytes
   fftplans  :       7367. kBytes
   grid      :      34170. kBytes
   one-center:       1337. kBytes
   wavefun   :     122653. kBytes
 
     INWAV:  cpu time    0.00: real time    0.00
 Broyden mixing: mesh for mixing (old mesh)
   NGX = 27   NGY = 27   NGZ = 73
  (NGX  = 84   NGY  = 80   NGZ  =224)
  gives a total of  53217 points

 initial charge density was supplied:
 charge density of overlapping atoms calculated
 number of electron     313.0000000 magnetization      52.1600000
 keeping initial charge density in first step


--------------------------------------------------------------------------------------------------------


 Maximum index for non-local projection operator         1313
 Maximum index for augmentation-charges          780 (set IRDMAX)


--------------------------------------------------------------------------------------------------------


 First call to EWALD:  gamma=   0.154
 Maximum number of real-space cells 4x 4x 2
 Maximum number of reciprocal cells 2x 2x 5

 FEWALD executed in parallel
    FEWALD:  cpu time    0.00: real time    0.00


----------------------------------------- Iteration    1(   1)  ---------------------------------------


    POTLOK:  cpu time    0.56: real time    0.56
    SETDIJ:  cpu time    0.06: real time    0.06
     EDDAV:  cpu time   33.75: real time   33.79
       DOS:  cpu time    0.00: real time    0.00
    --------------------------------------------
      LOOP:  cpu time   34.37: real time   34.41

 eigenvalue-minimisations  :  4320
 total energy-change (2. order) : 0.2190174E+04  (-0.1101349E+05)
 number of electron     313.0000000 magnetization      52.1600000
 augmentation part      313.0000000 magnetization      52.1600000

 Free energy of the ion-electron system (eV)
  ---------------------------------------------------
  alpha Z        PSCENC =       329.76814779
  Ewald energy   TEWEN  =    105292.65894500
  -Hartree energ DENC   =   -130583.45896402
  -exchange      EXHF   =         0.00000000
  -V(xc)+E(xc)   XCENC  =       614.54334961
  PAW double counting   =     23749.85691234   -25449.61764622
  entropy T*S    EENTRO =        -0.00186607
  eigenvalues    EBANDS =      1247.98268931
  atomic energy  EATOM  =     26988.44278752
  Solvation contrib.  Ediel  =         0.00000000
  ---------------------------------------------------
  free energy    TOTEN  =      2190.17435526 eV

  energy without entropy =     2190.17622133  energy(sigma->0) =     2190.17482178


--------------------------------------------------------------------------------------------------------




----------------------------------------- Iteration    1(   2)  ---------------------------------------


     EDDAV:  cpu time   33.66: real time   33.66
       DOS:  cpu time    0.00: real time    0.00
    --------------------------------------------
      LOOP:  cpu time   33.66: real time   33.66

 eigenvalue-minimisations  :  4416
 total energy-change (2. order) :-0.2237974E+04  (-0.2095686E+04)
 number of electron     313.0000000 magnetization      52.1600000
 augmentation part      313.0000000 magnetization      52.1600000

 Free energy of the ion-electron system (eV)
  ---------------------------------------------------
  alpha Z        PSCENC =       329.76814779
  Ewald energy   TEWEN  =    105292.65894500
  -Hartree energ DENC   =   -130583.45896402
  -exchange      EXHF   =         0.00000000
  -V(xc)+E(xc)   XCENC  =       614.54334961
  PAW double counting   =     23749.85691234   -25449.61764622
  entropy T*S    EENTRO =         0.01108676
  eigenvalues    EBANDS =      -990.00420292
  atomic energy  EATOM  =     26988.44278752
  Solvation contrib.  Ediel  =         0.00000000
  ---------------------------------------------------
  free energy    TOTEN  =       -47.79958414 eV

  energy without entropy =      -47.81067090  energy(sigma->0) =      -47.80235583


--------------------------------------------------------------------------------------------------------




----------------------------------------- Iteration    1(   3)  ---------------------------------------


     EDDAV:  cpu time   41.91: real time   41.92
       DOS:  cpu time    0.00: real time    0.00
    --------------------------------------------
      LOOP:  cpu time   41.92: real time   41.92

 eigenvalue-minimisations  :  5840
 total energy-change (2. order) :-0.2359750E+03  (-0.2164081E+03)
 number of electron     313.0000000 magnetization      52.1600000
 augmentation part      313.0000000 magnetization      52.1600000

 Free energy of the ion-electron system (eV)
  ---------------------------------------------------
  alpha Z        PSCENC =       329.76814779
  Ewald energy   TEWEN  =    105292.65894500
  -Hartree energ DENC   =   -130583.45896402
  -exchange      EXHF   =         0.00000000
  -V(xc)+E(xc)   XCENC  =       614.54334961
  PAW double counting   =     23749.85691234   -25449.61764622
  entropy T*S    EENTRO =        -0.03836029
  eigenvalues    EBANDS =     -1225.92977788
  atomic energy  EATOM  =     26988.44278752
  Solvation contrib.  Ediel  =         0.00000000
  ---------------------------------------------------
  free energy    TOTEN  =      -283.77460615 eV

  energy without entropy =     -283.73624586  energy(sigma->0) =     -283.76501608


--------------------------------------------------------------------------------------------------------




----------------------------------------- Iteration    1(   4)  ---------------------------------------


     EDDAV:  cpu time   38.06: real time   38.06
       DOS:  cpu time    0.00: real time    0.00
    --------------------------------------------
      LOOP:  cpu time   38.06: real time   38.07

 eigenvalue-minimisations  :  5168
 total energy-change (2. order) :-0.1659171E+02  (-0.1614428E+02)
 number of electron     313.0000000 magnetization      52.1600000
 augmentation part      313.0000000 magnetization      52.1600000

 Free energy of the ion-electron system (eV)
  ---------------------------------------------------
  alpha Z        PSCENC =       329.76814779
  Ewald energy   TEWEN  =    105292.65894500
  -Hartree energ DENC   =   -130583.45896402
  -exchange      EXHF   =         0.00000000
  -V(xc)+E(xc)   XCENC  =       614.54334961
  PAW double counting   =     23749.85691234   -25449.61764622
  entropy T*S    EENTRO =        -0.04654821
  eigenvalues    EBANDS =     -1242.51329546
  atomic energy  EATOM  =     26988.44278752
  Solvation contrib.  Ediel  =         0.00000000
  ---------------------------------------------------
  free energy    TOTEN  =      -300.36631164 eV

  energy without entropy =     -300.31976344  energy(sigma->0) =     -300.35467459


--------------------------------------------------------------------------------------------------------




----------------------------------------- Iteration    1(   5)  ---------------------------------------


     EDDAV:  cpu time   44.32: real time   44.32
       DOS:  cpu time    0.00: real time    0.00
    CHARGE:  cpu time    1.48: real time    1.48
    MIXING:  cpu time    0.01: real time    0.01
    --------------------------------------------
      LOOP:  cpu time   45.80: real time   45.81

 eigenvalue-minimisations  :  6288
 total energy-change (2. order) :-0.5457267E+00  (-0.5439656E+00)
 number of electron     313.0000795 magnetization      52.7057166
 augmentation part      150.5540730 magnetization      38.8163018

 Broyden mixing:
  rms(total) = 0.60981E+01    rms(broyden)= 0.60977E+01
  rms(prec ) = 0.63955E+01
  weight for this iteration     100.00

 Free energy of the ion-electron system (eV)
  ---------------------------------------------------
  alpha Z        PSCENC =       329.76814779
  Ewald energy   TEWEN  =    105292.65894500
  -Hartree energ DENC   =   -130583.45896402
  -exchange      EXHF   =         0.00000000
  -V(xc)+E(xc)   XCENC  =       614.54334961
  PAW double counting   =     23749.85691234   -25449.61764622
  entropy T*S    EENTRO =        -0.04582856
  eigenvalues    EBANDS =     -1243.05974183
  atomic energy  EATOM  =     26988.44278752
  Solvation contrib.  Ediel  =         0.00000000
  ---------------------------------------------------
  free energy    TOTEN  =      -300.91203837 eV

  energy without entropy =     -300.86620981  energy(sigma->0) =     -300.90058123


--------------------------------------------------------------------------------------------------------




----------------------------------------- Iteration    1(   6)  ---------------------------------------


    POTLOK:  cpu time    0.48: real time    0.48
    SETDIJ:  cpu time    0.05: real time    0.05
     EDDAV:  cpu time   38.51: real time   38.52
       DOS:  cpu time    0.00: real time    0.00
    CHARGE:  cpu time    1.40: real time    1.40
    MIXING:  cpu time    0.01: real time    0.01
    --------------------------------------------
      LOOP:  cpu time   40.46: real time   40.46

 eigenvalue-minimisations  :  5360
 total energy-change (2. order) :-0.5561895E+02  (-0.3391917E+02)
 number of electron     313.0000682 magnetization      52.0722799
 augmentation part      167.8564796 magnetization      47.7927380

 Broyden mixing:
  rms(total) = 0.13007E+02    rms(broyden)= 0.13007E+02
  rms(prec ) = 0.13957E+02
  weight for this iteration     100.00

 eigenvalues of (default mixing * dielectric matrix)
  average eigenvalue GAMMA=   0.2551
  0.2551

 Free energy of the ion-electron system (eV)
  ---------------------------------------------------
  alpha Z        PSCENC =       329.76814779
  Ewald energy   TEWEN  =    105292.65894500
  -Hartree energ DENC   =   -130288.47853337
  -exchange      EXHF   =         0.00000000
  -V(xc)+E(xc)   XCENC  =       601.22785920
  PAW double counting   =     26037.05440974   -27586.60066982
  entropy T*S    EENTRO =         0.02544304
  eigenvalues    EBANDS =     -1730.62937842
  atomic energy  EATOM  =     26988.44278752
  Solvation contrib.  Ediel  =         0.00000000
  ---------------------------------------------------
  free energy    TOTEN  =      -356.53098932 eV

  energy without entropy =     -356.55643236  energy(sigma->0) =     -356.53735008


--------------------------------------------------------------------------------------------------------




----------------------------------------- Iteration    1(   7)  ---------------------------------------


    POTLOK:  cpu time    0.47: real time    0.47
    SETDIJ:  cpu time    0.05: real time    0.05
     EDDAV:  cpu time   35.88: real time   35.89
       DOS:  cpu time    0.00: real time    0.00
    CHARGE:  cpu time    1.38: real time    1.37
    MIXING:  cpu time    0.01: real time    0.01
    --------------------------------------------
      LOOP:  cpu time   37.80: real time   37.80

 eigenvalue-minimisations  :  4896
 total energy-change (2. order) : 0.6279874E+02  (-0.2440943E+02)
 number of electron     313.0000987 magnetization      51.7614594
 augmentation part      174.3389206 magnetization      41.4138329

 Broyden mixing:
  rms(total) = 0.72220E+01    rms(broyden)= 0.72211E+01
  rms(prec ) = 0.78267E+01
  weight for this iteration     100.00

 eigenvalues of (default mixing * dielectric matrix)
  average eigenvalue GAMMA=   0.3767
  0.6062  0.1471

 Free energy of the ion-electron system (eV)
  ---------------------------------------------------
  alpha Z        PSCENC =       329.76814779
  Ewald energy   TEWEN  =    105292.65894500
  -Hartree energ DENC   =   -130203.71430905
  -exchange      EXHF   =         0.00000000
  -V(xc)+E(xc)   XCENC  =       595.77617099
  PAW double counting   =     26502.26240759   -28074.40427158
  entropy T*S    EENTRO =         0.04239619
  eigenvalues    EBANDS =     -1724.56452838
  atomic energy  EATOM  =     26988.44278752
  Solvation contrib.  Ediel  =         0.00000000
  ---------------------------------------------------
  free energy    TOTEN  =      -293.73225392 eV

  energy without entropy =     -293.77465011  energy(sigma->0) =     -293.74285297


--------------------------------------------------------------------------------------------------------




----------------------------------------- Iteration    1(   8)  ---------------------------------------


    POTLOK:  cpu time    0.48: real time    0.48
    SETDIJ:  cpu time    0.05: real time    0.05
     EDDAV:  cpu time   36.73: real time   36.73
       DOS:  cpu time    0.00: real time    0.00
    CHARGE:  cpu time    1.43: real time    1.43
    MIXING:  cpu time    0.01: real time    0.01
    --------------------------------------------
      LOOP:  cpu time   38.70: real time   38.70

 eigenvalue-minimisations  :  5056
 total energy-change (2. order) : 0.2072773E+02  (-0.7772869E+01)
 number of electron     313.0000817 magnetization      51.6011223
 augmentation part      167.6389245 magnetization      42.7955300

 Broyden mixing:
  rms(total) = 0.55917E+01    rms(broyden)= 0.55912E+01
  rms(prec ) = 0.61307E+01
  weight for this iteration     100.00

 eigenvalues of (default mixing * dielectric matrix)
  average eigenvalue GAMMA=   0.3956
  0.7764  0.2609  0.1494

 Free energy of the ion-electron system (eV)
  ---------------------------------------------------
  alpha Z        PSCENC =       329.76814779
  Ewald energy   TEWEN  =    105292.65894500
  -Hartree energ DENC   =   -130469.96145554
  -exchange      EXHF   =         0.00000000
  -V(xc)+E(xc)   XCENC  =       600.70683996
  PAW double counting   =     27683.60377455   -29334.41855361
  entropy T*S    EENTRO =        -0.00880787
  eigenvalues    EBANDS =     -1363.79620250
  atomic energy  EATOM  =     26988.44278752
  Solvation contrib.  Ediel  =         0.00000000
  ---------------------------------------------------
  free energy    TOTEN  =      -273.00452470 eV

  energy without entropy =     -272.99571683  energy(sigma->0) =     -273.00232273


--------------------------------------------------------------------------------------------------------




----------------------------------------- Iteration    1(   9)  ---------------------------------------


    POTLOK:  cpu time    0.48: real time    0.48
    SETDIJ:  cpu time    0.05: real time    0.05
     EDDAV:  cpu time   42.30: real time   42.30
       DOS:  cpu time    0.00: real time    0.00
    CHARGE:  cpu time    1.47: real time    1.47
    MIXING:  cpu time    0.01: real time    0.01
    --------------------------------------------
      LOOP:  cpu time   44.31: real time   44.32

 eigenvalue-minimisations  :  5992
 total energy-change (2. order) :-0.1709351E+02  (-0.6729342E+01)
 number of electron     313.0000898 magnetization      51.1573487
 augmentation part      165.4963651 magnetization      44.9961298

 Broyden mixing:
  rms(total) = 0.84424E+01    rms(broyden)= 0.84419E+01
  rms(prec ) = 0.99749E+01
  weight for this iteration     100.00

 eigenvalues of (default mixing * dielectric matrix)
  average eigenvalue GAMMA=   0.3878
  0.6873  0.5947  0.1346  0.1346

 Free energy of the ion-electron system (eV)
  ---------------------------------------------------
  alpha Z        PSCENC =       329.76814779
  Ewald energy   TEWEN  =    105292.65894500
  -Hartree energ DENC   =   -130547.53327241
  -exchange      EXHF   =         0.00000000
  -V(xc)+E(xc)   XCENC  =       602.63587071
  PAW double counting   =     28186.34150366   -29863.12460597
  entropy T*S    EENTRO =         0.01406387
  eigenvalues    EBANDS =     -1279.30147497
  atomic energy  EATOM  =     26988.44278752
  Solvation contrib.  Ediel  =         0.00000000
  ---------------------------------------------------
  free energy    TOTEN  =      -290.09803481 eV

  energy without entropy =     -290.11209868  energy(sigma->0) =     -290.10155078


--------------------------------------------------------------------------------------------------------




----------------------------------------- Iteration    1(  10)  ---------------------------------------


    POTLOK:  cpu time    0.48: real time    0.48
    SETDIJ:  cpu time    0.06: real time    0.05
     EDDAV:  cpu time   37.95: real time   37.95
       DOS:  cpu time    0.00: real time    0.00
    CHARGE:  cpu time    1.43: real time    1.43
    MIXING:  cpu time    0.01: real time    0.01
    --------------------------------------------
      LOOP:  cpu time   39.92: real time   39.93

 eigenvalue-minimisations  :  5128
 total energy-change (2. order) : 0.5407879E+01  (-0.4446308E+01)
 number of electron     313.0000697 magnetization      50.9869308
 augmentation part      164.3146936 magnetization      42.1250483

 Broyden mixing:
  rms(total) = 0.62784E+01    rms(broyden)= 0.62779E+01
  rms(prec ) = 0.73016E+01
  weight for this iteration     100.00

 eigenvalues of (default mixing * dielectric matrix)
  average eigenvalue GAMMA=   0.3388
  0.6583  0.6583  0.1552  0.1552  0.0674

 Free energy of the ion-electron system (eV)
  ---------------------------------------------------
  alpha Z        PSCENC =       329.76814779
  Ewald energy   TEWEN  =    105292.65894500
  -Hartree energ DENC   =   -130563.41890467
  -exchange      EXHF   =         0.00000000
  -V(xc)+E(xc)   XCENC  =       601.62057126
  PAW double counting   =     28508.19909089   -30194.72645712
  entropy T*S    EENTRO =         0.02222423
  eigenvalues    EBANDS =     -1247.25656029
  atomic energy  EATOM  =     26988.44278752
  Solvation contrib.  Ediel  =         0.00000000
  ---------------------------------------------------
  free energy    TOTEN  =      -284.69015539 eV

  energy without entropy =     -284.71237962  energy(sigma->0) =     -284.69571145


--------------------------------------------------------------------------------------------------------




----------------------------------------- Iteration    1(  11)  ---------------------------------------


    POTLOK:  cpu time    0.48: real time    0.48
    SETDIJ:  cpu time    0.05: real time    0.05
     EDDAV:  cpu time   34.22: real time   34.22
       DOS:  cpu time    0.00: real time    0.00
    CHARGE:  cpu time    1.49: real time    1.49
    MIXING:  cpu time    0.02: real time    0.01
    --------------------------------------------
      LOOP:  cpu time   36.25: real time   36.26

 eigenvalue-minimisations  :  4752
 total energy-change (2. order) : 0.1647907E+02  (-0.2318554E+01)
 number of electron     313.0000799 magnetization      50.9851101
 augmentation part      164.9195798 magnetization      41.0535932

 Broyden mixing:
  rms(total) = 0.38887E+01    rms(broyden)= 0.38884E+01
  rms(prec ) = 0.43025E+01
  weight for this iteration     100.00

 eigenvalues of (default mixing * dielectric matrix)
  average eigenvalue GAMMA=   0.3547
  0.9527  0.4030  0.4030  0.1646  0.1025  0.1025

 Free energy of the ion-electron system (eV)
  ---------------------------------------------------
  alpha Z        PSCENC =       329.76814779
  Ewald energy   TEWEN  =    105292.65894500
  -Hartree energ DENC   =   -130561.82225605
  -exchange      EXHF   =         0.00000000
  -V(xc)+E(xc)   XCENC  =       601.79124930
  PAW double counting   =     28647.02655178   -30335.69011878
  entropy T*S    EENTRO =         0.01906705
  eigenvalues    EBANDS =     -1230.40546010
  atomic energy  EATOM  =     26988.44278752
  Solvation contrib.  Ediel  =         0.00000000
  ---------------------------------------------------
  free energy    TOTEN  =      -268.21108648 eV

  energy without entropy =     -268.23015353  energy(sigma->0) =     -268.21585325


--------------------------------------------------------------------------------------------------------




----------------------------------------- Iteration    1(  12)  ---------------------------------------


    POTLOK:  cpu time    0.48: real time    0.48
    SETDIJ:  cpu time    0.05: real time    0.05
     EDDAV:  cpu time   40.03: real time   40.04
       DOS:  cpu time    0.00: real time    0.00
    CHARGE:  cpu time    1.48: real time    1.48
    MIXING:  cpu time    0.01: real time    0.01
    --------------------------------------------
      LOOP:  cpu time   42.06: real time   42.07

 eigenvalue-minimisations  :  5768
 total energy-change (2. order) : 0.1695775E+01  (-0.1336906E+01)
 number of electron     313.0000783 magnetization      50.8863118
 augmentation part      164.6164649 magnetization      42.0410293

 Broyden mixing:
  rms(total) = 0.39680E+01    rms(broyden)= 0.39678E+01
  rms(prec ) = 0.44517E+01
  weight for this iteration     100.00

 eigenvalues of (default mixing * dielectric matrix)
  average eigenvalue GAMMA=   0.3862
  1.1976  0.5089  0.5089  0.1580  0.1227  0.1227  0.0844

 Free energy of the ion-electron system (eV)
  ---------------------------------------------------
  alpha Z        PSCENC =       329.76814779
  Ewald energy   TEWEN  =    105292.65894500
  -Hartree energ DENC   =   -130570.89969433
  -exchange      EXHF   =         0.00000000
  -V(xc)+E(xc)   XCENC  =       602.77175825
  PAW double counting   =     28843.23831644   -30536.14830905
  entropy T*S    EENTRO =        -0.00809584
  eigenvalues    EBANDS =     -1216.33916761
  atomic energy  EATOM  =     26988.44278752
  Solvation contrib.  Ediel  =         0.00000000
  ---------------------------------------------------
  free energy    TOTEN  =      -266.51531183 eV

  energy without entropy =     -266.50721599  energy(sigma->0) =     -266.51328787


--------------------------------------------------------------------------------------------------------




----------------------------------------- Iteration    1(  13)  ---------------------------------------


    POTLOK:  cpu time    0.49: real time    0.49
    SETDIJ:  cpu time    0.05: real time    0.05
     EDDAV:  cpu time   35.30: real time   35.31
       DOS:  cpu time    0.00: real time    0.00
    CHARGE:  cpu time    1.47: real time    1.47
    MIXING:  cpu time    0.01: real time    0.01
    --------------------------------------------
      LOOP:  cpu time   37.33: real time   37.34

 eigenvalue-minimisations  :  4960
 total energy-change (2. order) : 0.3136049E+01  (-0.1435625E+01)
 number of electron     313.0000828 magnetization      50.9106289
 augmentation part      165.1425116 magnetization      41.2068869

 Broyden mixing:
  rms(total) = 0.23966E+01    rms(broyden)= 0.23962E+01
  rms(prec ) = 0.26797E+01
  weight for this iteration     100.00

 eigenvalues of (default mixing * dielectric matrix)
  average eigenvalue GAMMA=   0.3528
  1.2304  0.5008  0.5008  0.1584  0.1344  0.1344  0.0838  0.0793

 Free energy of the ion-electron system (eV)
  ---------------------------------------------------
  alpha Z        PSCENC =       329.76814779
  Ewald energy   TEWEN  =    105292.65894500
  -Hartree energ DENC   =   -130573.90887731
  -exchange      EXHF   =         0.00000000
  -V(xc)+E(xc)   XCENC  =       603.16071373
  PAW double counting   =     29144.32182518   -30841.52628160
  entropy T*S    EENTRO =        -0.04092227
  eigenvalues    EBANDS =     -1206.25560114
  atomic energy  EATOM  =     26988.44278752
  Solvation contrib.  Ediel  =         0.00000000
  ---------------------------------------------------
  free energy    TOTEN  =      -263.37926311 eV

  energy without entropy =     -263.33834085  energy(sigma->0) =     -263.36903255


--------------------------------------------------------------------------------------------------------




----------------------------------------- Iteration    1(  14)  ---------------------------------------


    POTLOK:  cpu time    0.48: real time    0.48
    SETDIJ:  cpu time    0.05: real time    0.05
     EDDAV:  cpu time   35.52: real time   35.53
       DOS:  cpu time    0.00: real time    0.00
    CHARGE:  cpu time    1.48: real time    1.48
    MIXING:  cpu time    0.01: real time    0.01
    --------------------------------------------
      LOOP:  cpu time   37.55: real time   37.56

 eigenvalue-minimisations  :  4992
 total energy-change (2. order) : 0.1217563E+01  (-0.3902607E+00)
 number of electron     313.0000843 magnetization      51.0284332
 augmentation part      164.9235791 magnetization      41.6328160

 Broyden mixing:
  rms(total) = 0.14329E+01    rms(broyden)= 0.14327E+01
  rms(prec ) = 0.15196E+01
  weight for this iteration     100.00

 eigenvalues of (default mixing * dielectric matrix)
  average eigenvalue GAMMA=   0.3634
  1.3195  0.5320  0.5320  0.3152  0.1522  0.1287  0.1028  0.1028  0.0853

 Free energy of the ion-electron system (eV)
  ---------------------------------------------------
  alpha Z        PSCENC =       329.76814779
  Ewald energy   TEWEN  =    105292.65894500
  -Hartree energ DENC   =   -130579.78812055
  -exchange      EXHF   =         0.00000000
  -V(xc)+E(xc)   XCENC  =       603.38565051
  PAW double counting   =     29216.03777515   -30914.17202166
  entropy T*S    EENTRO =        -0.05447024
  eigenvalues    EBANDS =     -1198.44039380
  atomic energy  EATOM  =     26988.44278752
  Solvation contrib.  Ediel  =         0.00000000
  ---------------------------------------------------
  free energy    TOTEN  =      -262.16170027 eV

  energy without entropy =     -262.10723003  energy(sigma->0) =     -262.14808271


--------------------------------------------------------------------------------------------------------




----------------------------------------- Iteration    1(  15)  ---------------------------------------


    POTLOK:  cpu time    0.48: real time    0.48
    SETDIJ:  cpu time    0.05: real time    0.05
     EDDAV:  cpu time   37.48: real time   37.49
       DOS:  cpu time    0.00: real time    0.00
    CHARGE:  cpu time    1.48: real time    1.48
    MIXING:  cpu time    0.02: real time    0.02
    --------------------------------------------
      LOOP:  cpu time   39.52: real time   39.52

 eigenvalue-minimisations  :  5352
 total energy-change (2. order) :-0.5474602E+00  (-0.1592457E+00)
 number of electron     313.0000838 magnetization      51.1050285
 augmentation part      164.9253030 magnetization      42.3404257

 Broyden mixing:
  rms(total) = 0.12398E+01    rms(broyden)= 0.12397E+01
  rms(prec ) = 0.13020E+01
  weight for this iteration     100.00

 eigenvalues of (default mixing * dielectric matrix)
  average eigenvalue GAMMA=   0.3488
  1.3432  0.5402  0.5402  0.2443  0.2443  0.1658  0.1158  0.1158  0.0837  0.0946

 Free energy of the ion-electron system (eV)
  ---------------------------------------------------
  alpha Z        PSCENC =       329.76814779
  Ewald energy   TEWEN  =    105292.65894500
  -Hartree energ DENC   =   -130589.02715028
  -exchange      EXHF   =         0.00000000
  -V(xc)+E(xc)   XCENC  =       603.72670233
  PAW double counting   =     29352.01842083   -31051.11063641
  entropy T*S    EENTRO =        -0.05475643
  eigenvalues    EBANDS =     -1189.13162086
  atomic energy  EATOM  =     26988.44278752
  Solvation contrib.  Ediel  =         0.00000000
  ---------------------------------------------------
  free energy    TOTEN  =      -262.70916051 eV

  energy without entropy =     -262.65440408  energy(sigma->0) =     -262.69547140


--------------------------------------------------------------------------------------------------------




----------------------------------------- Iteration    1(  16)  ---------------------------------------


    POTLOK:  cpu time    0.48: real time    0.48
    SETDIJ:  cpu time    0.05: real time    0.05
     EDDAV:  cpu time   33.61: real time   33.61
       DOS:  cpu time    0.00: real time    0.00
    CHARGE:  cpu time    1.45: real time    1.45
    MIXING:  cpu time    0.02: real time    0.01
    --------------------------------------------
      LOOP:  cpu time   35.61: real time   35.61

 eigenvalue-minimisations  :  4688
 total energy-change (2. order) :-0.1173733E+00  (-0.7590094E-01)
 number of electron     313.0000839 magnetization      51.2953382
 augmentation part      164.9189487 magnetization      42.7755923

 Broyden mixing:
  rms(total) = 0.10304E+01    rms(broyden)= 0.10304E+01
  rms(prec ) = 0.10532E+01
  weight for this iteration     100.00

 eigenvalues of (default mixing * dielectric matrix)
  average eigenvalue GAMMA=   0.3804
  1.3543  0.6668  0.6668  0.4027  0.4027  0.1594  0.1256  0.1256  0.1023  0.0858
  0.0924

 Free energy of the ion-electron system (eV)
  ---------------------------------------------------
  alpha Z        PSCENC =       329.76814779
  Ewald energy   TEWEN  =    105292.65894500
  -Hartree energ DENC   =   -130592.10920682
  -exchange      EXHF   =         0.00000000
  -V(xc)+E(xc)   XCENC  =       603.91146540
  PAW double counting   =     29401.72369853   -31101.03471361
  entropy T*S    EENTRO =        -0.05796514
  eigenvalues    EBANDS =     -1186.12969247
  atomic energy  EATOM  =     26988.44278752
  Solvation contrib.  Ediel  =         0.00000000
  ---------------------------------------------------
  free energy    TOTEN  =      -262.82653380 eV

  energy without entropy =     -262.76856866  energy(sigma->0) =     -262.81204251


--------------------------------------------------------------------------------------------------------




----------------------------------------- Iteration    1(  17)  ---------------------------------------


    POTLOK:  cpu time    0.46: real time    0.46
    SETDIJ:  cpu time    0.05: real time    0.05
     EDDAV:  cpu time   33.86: real time   33.87
       DOS:  cpu time    0.00: real time    0.00
    CHARGE:  cpu time    1.47: real time    1.47
    MIXING:  cpu time    0.02: real time    0.02
    --------------------------------------------
      LOOP:  cpu time   35.86: real time   35.87

 eigenvalue-minimisations  :  4736
 total energy-change (2. order) :-0.5574303E+00  (-0.5573379E-01)
 number of electron     313.0000842 magnetization      51.4531477
 augmentation part      165.0542765 magnetization      43.2933031

 Broyden mixing:
  rms(total) = 0.97075E+00    rms(broyden)= 0.97073E+00
  rms(prec ) = 0.10024E+01
  weight for this iteration     100.00

 eigenvalues of (default mixing * dielectric matrix)
  average eigenvalue GAMMA=   0.4107
  1.3931  0.7967  0.7967  0.4692  0.4692  0.3063  0.1582  0.1309  0.1147  0.1147
  0.0945  0.0847

 Free energy of the ion-electron system (eV)
  ---------------------------------------------------
  alpha Z        PSCENC =       329.76814779
  Ewald energy   TEWEN  =    105292.65894500
  -Hartree energ DENC   =   -130593.35319748
  -exchange      EXHF   =         0.00000000
  -V(xc)+E(xc)   XCENC  =       604.19812479
  PAW double counting   =     29452.95794365   -31152.03540919
  entropy T*S    EENTRO =        -0.05178527
  eigenvalues    EBANDS =     -1185.96952092
  atomic energy  EATOM  =     26988.44278752
  Solvation contrib.  Ediel  =         0.00000000
  ---------------------------------------------------
  free energy    TOTEN  =      -263.38396410 eV

  energy without entropy =     -263.33217884  energy(sigma->0) =     -263.37101779


--------------------------------------------------------------------------------------------------------




----------------------------------------- Iteration    1(  18)  ---------------------------------------


    POTLOK:  cpu time    0.49: real time    0.49
    SETDIJ:  cpu time    0.05: real time    0.05
     EDDAV:  cpu time   36.44: real time   36.45
       DOS:  cpu time    0.00: real time    0.00
    CHARGE:  cpu time    1.46: real time    1.46
    MIXING:  cpu time    0.02: real time    0.02
    --------------------------------------------
      LOOP:  cpu time   38.47: real time   38.48

 eigenvalue-minimisations  :  5192
 total energy-change (2. order) :-0.5288677E+00  (-0.7302896E-01)
 number of electron     313.0000846 magnetization      51.9468173
 augmentation part      165.1637486 magnetization      43.9567768

 Broyden mixing:
  rms(total) = 0.12688E+01    rms(broyden)= 0.12687E+01
  rms(prec ) = 0.13613E+01
  weight for this iteration     100.00

 eigenvalues of (default mixing * dielectric matrix)
  average eigenvalue GAMMA=   0.4692
  1.6634  1.0015  1.0015  0.6083  0.6083  0.4162  0.1584  0.0850  0.1182  0.1182
  0.0924  0.1184  0.1097

 Free energy of the ion-electron system (eV)
  ---------------------------------------------------
  alpha Z        PSCENC =       329.76814779
  Ewald energy   TEWEN  =    105292.65894500
  -Hartree energ DENC   =   -130595.73541161
  -exchange      EXHF   =         0.00000000
  -V(xc)+E(xc)   XCENC  =       604.38273337
  PAW double counting   =     29509.04089436   -31208.31566796
  entropy T*S    EENTRO =        -0.02680418
  eigenvalues    EBANDS =     -1184.12845612
  atomic energy  EATOM  =     26988.44278752
  Solvation contrib.  Ediel  =         0.00000000
  ---------------------------------------------------
  free energy    TOTEN  =      -263.91283182 eV

  energy without entropy =     -263.88602764  energy(sigma->0) =     -263.90613077


--------------------------------------------------------------------------------------------------------




----------------------------------------- Iteration    1(  19)  ---------------------------------------


    POTLOK:  cpu time    0.48: real time    0.48
    SETDIJ:  cpu time    0.05: real time    0.05
     EDDAV:  cpu time   36.71: real time   36.71
       DOS:  cpu time    0.00: real time    0.00
    CHARGE:  cpu time    1.49: real time    1.49
    MIXING:  cpu time    0.02: real time    0.02
    --------------------------------------------
      LOOP:  cpu time   38.75: real time   38.75

 eigenvalue-minimisations  :  5256
 total energy-change (2. order) :-0.3841454E-01  (-0.1027189E+00)
 number of electron     313.0000846 magnetization      52.1645894
 augmentation part      165.5492014 magnetization      44.6802369

 Broyden mixing:
  rms(total) = 0.87910E+00    rms(broyden)= 0.87901E+00
  rms(prec ) = 0.93243E+00
  weight for this iteration     100.00

 eigenvalues of (default mixing * dielectric matrix)
  average eigenvalue GAMMA=   0.4671
  1.8272  0.9966  0.9966  0.6399  0.6399  0.4146  0.2238  0.1581  0.1223  0.1179
  0.1179  0.0848  0.0938  0.1062

 Free energy of the ion-electron system (eV)
  ---------------------------------------------------
  alpha Z        PSCENC =       329.76814779
  Ewald energy   TEWEN  =    105292.65894500
  -Hartree energ DENC   =   -130604.04054975
  -exchange      EXHF   =         0.00000000
  -V(xc)+E(xc)   XCENC  =       605.10746813
  PAW double counting   =     29694.23012305   -31394.31257638
  entropy T*S    EENTRO =        -0.03796375
  eigenvalues    EBANDS =     -1175.76762797
  atomic energy  EATOM  =     26988.44278752
  Solvation contrib.  Ediel  =         0.00000000
  ---------------------------------------------------
  free energy    TOTEN  =      -263.95124636 eV

  energy without entropy =     -263.91328261  energy(sigma->0) =     -263.94175542


--------------------------------------------------------------------------------------------------------




----------------------------------------- Iteration    1(  20)  ---------------------------------------


    POTLOK:  cpu time    0.48: real time    0.48
    SETDIJ:  cpu time    0.05: real time    0.05
     EDDAV:  cpu time   35.82: real time   35.83
       DOS:  cpu time    0.00: real time    0.00
    CHARGE:  cpu time    1.49: real time    1.49
    MIXING:  cpu time    0.02: real time    0.02
    --------------------------------------------
      LOOP:  cpu time   37.87: real time   37.88

 eigenvalue-minimisations  :  5096
 total energy-change (2. order) : 0.7500900E-01  (-0.7981477E-01)
 number of electron     313.0000847 magnetization      52.5069409
 augmentation part      165.7603995 magnetization      45.2212805

 Broyden mixing:
  rms(total) = 0.81022E+00    rms(broyden)= 0.81012E+00
  rms(prec ) = 0.86381E+00
  weight for this iteration     100.00

 eigenvalues of (default mixing * dielectric matrix)
  average eigenvalue GAMMA=   0.4754
  2.0523  0.9160  0.9160  0.7070  0.7070  0.4527  0.4527  0.1593  0.1370  0.1203
  0.1203  0.0848  0.1113  0.0934  0.1002

 Free energy of the ion-electron system (eV)
  ---------------------------------------------------
  alpha Z        PSCENC =       329.76814779
  Ewald energy   TEWEN  =    105292.65894500
  -Hartree energ DENC   =   -130607.82789589
  -exchange      EXHF   =         0.00000000
  -V(xc)+E(xc)   XCENC  =       605.49363805
  PAW double counting   =     29740.48850823   -31440.44125640
  entropy T*S    EENTRO =        -0.03100097
  eigenvalues    EBANDS =     -1172.42811068
  atomic energy  EATOM  =     26988.44278752
  Solvation contrib.  Ediel  =         0.00000000
  ---------------------------------------------------
  free energy    TOTEN  =      -263.87623736 eV

  energy without entropy =     -263.84523639  energy(sigma->0) =     -263.86848711


--------------------------------------------------------------------------------------------------------




----------------------------------------- Iteration    1(  21)  ---------------------------------------


    POTLOK:  cpu time    0.48: real time    0.48
    SETDIJ:  cpu time    0.05: real time    0.05
     EDDAV:  cpu time   35.01: real time   35.02
       DOS:  cpu time    0.00: real time    0.00
    CHARGE:  cpu time    1.39: real time    1.39
    MIXING:  cpu time    0.02: real time    0.02
    --------------------------------------------
      LOOP:  cpu time   36.97: real time   36.97

 eigenvalue-minimisations  :  4936
 total energy-change (2. order) : 0.2254240E+00  (-0.5134299E-01)
 number of electron     313.0000843 magnetization      52.6460462
 augmentation part      165.8472105 magnetization      45.6193689

 Broyden mixing:
  rms(total) = 0.71594E+00    rms(broyden)= 0.71589E+00
  rms(prec ) = 0.76911E+00
  weight for this iteration     100.00

 eigenvalues of (default mixing * dielectric matrix)
  average eigenvalue GAMMA=   0.4585
[...]
      5     Co          0.037          0.037          1.079
      6     Co          0.036          0.035          1.079
      7     Co          0.035          0.036          1.081
      8     Co          0.034          0.036          1.083
      9     Co         -0.033         -0.032          0.937
     10     Co         -0.030         -0.032          0.931
     11     Co         -0.035         -0.035          0.935
     12     Co         -0.033         -0.034          0.930
     13     Co         -0.037         -0.034          0.939
     14     Co         -0.035         -0.035          0.931
     15     Co         -0.039         -0.040          0.930
     16     Co         -0.037         -0.040          0.923
     17     Co         -0.047         -0.040          0.936
     18     Co         -0.042         -0.036          0.939
     19     Co         -0.018         -0.018          0.921
     20     Co         -0.036         -0.032          0.931
     21     Co         -0.042         -0.036          0.940
     22     Co         -0.043         -0.038          0.936
     23     Co         -0.039         -0.035          0.933
     24     Co         -0.030         -0.026          0.930
     25     Co          0.035          0.032          1.055
     26     Co          0.033          0.031          1.060
     27     Co          0.031          0.038          1.049
     28     Co          0.038          0.038          1.054
     29     Co          0.055          0.047          1.046
     30     Co          0.058          0.055          1.034
     31     Co          0.119          0.108          1.002
     32     Co          0.116          0.105          0.996
     33     C          -0.141         -0.118          0.837
     34     C           0.063          0.033          0.646
     35     C          -0.144         -0.121          0.838
     36     O          -0.261         -0.207          1.023
     37     H           0.026          0.019          0.819
     38     H           0.055          0.043          0.732
     39     H           0.058          0.046          0.719
     40     H           0.004         -0.001          0.860
     41     H           0.052          0.041          0.736
     42     H           0.056          0.044          0.726
     43     H           0.038          0.025          0.873

  dDsC method for vdW energy calculation
  ---------------------------------------------------------------------------------------------

  Parameters of vdW forcefield:
            C6dDsC            XDM            ALPHAts        RELVOL
            (au)              (au)            (au)                
   ---------------------------------------------------------------
   Co        539.990         11.938         54.055          1.081
   Co        537.327         11.926         53.842          1.077
   Co        543.150         11.961         54.269          1.085
   Co        539.732         11.953         53.963          1.079
   Co        538.074         11.922         53.937          1.079
   Co        539.586         11.955         53.939          1.079
   Co        539.933         11.942         54.031          1.081
   Co        542.041         11.967         54.129          1.083
   Co        325.562          8.301         46.868          0.937
   Co        322.832          8.288         46.550          0.931
   Co        323.972          8.284         46.735          0.935
   Co        322.243          8.279         46.517          0.930
   Co        325.410          8.287         46.926          0.939
   Co        321.944          8.265         46.553          0.931
   Co        322.244          8.280         46.509          0.930
   Co        319.038          8.259         46.167          0.923
   Co        326.249          8.327         46.824          0.936
   Co        329.378          8.381         46.967          0.939
   Co        319.134          8.282         46.053          0.921
   Co        324.311          8.330         46.527          0.931
   Co        330.096          8.393         47.002          0.940
   Co        326.627          8.345         46.777          0.936
   Co        325.550          8.342         46.640          0.933
   Co        326.578          8.394         46.494          0.930
   Co        513.237         11.633         52.727          1.055
   Co        515.387         11.620         53.006          1.060
   Co        496.946         11.319         52.467          1.049
   Co        505.839         11.472         52.693          1.054
   Co        503.319         11.502         52.295          1.046
   Co        488.986         11.303         51.701          1.034
   Co        449.755         10.734         50.075          1.002
   Co        443.635         10.645         49.806          0.996
   C          46.589          5.542         10.046          0.837
   C          30.662          4.727          7.753          0.646
   C          46.660          5.547         10.052          0.838
   O          28.676          6.205          5.523          1.023
   H           7.193          2.331          3.688          0.819
   H           4.810          1.744          3.295          0.732
   H           4.561          1.684          3.237          0.719
   H           8.114          2.506          3.869          0.860
   H           4.882          1.762          3.311          0.736
   H           4.643          1.699          3.266          0.726
   H           8.010          2.436          3.930          0.873

  IVDW =   4
  VDW_RADIUS =    50.000 A
  VDW_S6 aka ATT0 =    13.960
  VDW_SR aka BTT0 =     1.320
  LVDW_ONECELL = F F F

  Number of pair interactions contributing to vdW energy:  325323
  Edisp (eV):   -6.92857
    FORVDW:  cpu time   18.50: real time   18.50

  FORCE on cell =-STRESS in cart. coord.  units (eV):
  Direction    XX          YY          ZZ          XY          YZ          ZX
  --------------------------------------------------------------------------------------
  Alpha Z   329.76815   329.76815   329.76815
  Ewald  120108.14720121089.94910************   161.33976  -107.38644   232.99394
  Hartree126310.54461126995.88721************   115.41597   -67.39995   153.17202
  E(xc)   -1569.82578 -1569.50132 -1572.12042     0.08303    -0.11704     0.21091
  Local  ************************252189.53678  -280.35055   170.32201  -378.13062
  n-local  -236.16425  -228.61903  -252.67654    -0.26987    -0.91233     1.31695
  augment  4996.54193  4992.02987  4991.96888    -0.27700     0.36979    -0.45587
  Kinetic  2794.22624  2792.98056  2812.74393     3.83075     5.06664    -8.85456
  Fock        0.00000     0.00000     0.00000     0.00000     0.00000     0.00000
  vdW        -8.63668    -8.75154    -4.45822    -0.08257     0.01252    -0.03646
  -------------------------------------------------------------------------------------
  Total     -24.45487   -23.25619    -7.68434    -0.31047    -0.04480     0.21631
  in kB     -25.67370   -24.41528    -8.06733    -0.32594    -0.04703     0.22709
  external pressure =      -19.39 kB  Pullay stress =        0.00 kB


 VOLUME and BASIS-vectors are now :
 -----------------------------------------------------------------------------
  energy-cutoff  :      400.00
  volume of cell :     1526.12
      direct lattice vectors                 reciprocal lattice vectors
     8.559999890  0.000000000  0.000000000     0.116822431  0.000000000  0.000000000
     0.000000000  8.019998610  0.000000000     0.000000000  0.124688301  0.000000000
     0.000000000  0.000000000 22.230000000     0.000000000  0.000000000  0.044984256

  length of vectors
     8.559999890  8.019998610 22.230000000     0.116822431  0.124688301  0.044984256


 FORCES acting on ions
    electron-ion (+dipol)            ewald-force                    non-local-force                 convergence-correction
 -----------------------------------------------------------------------------------------------
   0.451E+02 -.279E+01 0.197E+04   -.437E+02 0.285E+01 -.196E+04   -.121E+01 -.738E-01 -.419E+01   0.138E-02 0.129E-02 0.103E-02
   -.548E+02 0.459E+01 0.197E+04   0.534E+02 -.464E+01 -.196E+04   0.116E+01 0.328E-01 -.432E+01   -.113E-03 -.127E-02 0.828E-03
   0.448E+02 0.221E+01 0.198E+04   -.434E+02 -.213E+01 -.198E+04   -.116E+01 -.401E-01 -.415E+01   -.474E-04 -.127E-02 -.163E-03
   -.560E+02 -.441E+01 0.197E+04   0.546E+02 0.444E+01 -.197E+04   0.115E+01 -.131E-01 -.418E+01   0.322E-03 0.124E-02 0.216E-03
   0.512E+02 -.251E+01 0.196E+04   -.498E+02 0.254E+01 -.195E+04   -.120E+01 -.468E-02 -.432E+01   -.112E-02 0.241E-03 -.240E-03
   -.418E+02 0.422E+01 0.197E+04   0.403E+02 -.427E+01 -.196E+04   0.120E+01 0.463E-01 -.421E+01   0.915E-03 -.598E-03 -.370E-03
   0.523E+02 0.223E+01 0.196E+04   -.509E+02 -.226E+01 -.196E+04   -.117E+01 0.130E-01 -.419E+01   0.283E-03 -.212E-03 -.921E-03
   -.411E+02 -.356E+01 0.197E+04   0.397E+02 0.350E+01 -.197E+04   0.114E+01 0.373E-01 -.415E+01   0.479E-03 0.575E-03 -.514E-03
   -.184E+02 -.428E+01 0.850E+03   0.186E+02 0.424E+01 -.851E+03   -.259E+00 0.149E-01 0.867E+00   -.260E-03 0.123E-02 -.162E-02
   0.654E+01 0.661E+01 0.847E+03   -.677E+01 -.655E+01 -.848E+03   0.292E+00 -.305E-01 0.874E+00   -.144E-02 -.194E-02 -.170E-02
   -.267E+02 0.409E+01 0.862E+03   0.269E+02 -.412E+01 -.864E+03   -.245E+00 0.375E-01 0.841E+00   -.903E-03 -.128E-02 -.232E-02
   0.953E+01 -.619E+01 0.852E+03   -.976E+01 0.621E+01 -.853E+03   0.262E+00 -.369E-01 0.861E+00   -.225E-03 0.200E-02 -.163E-02
   0.476E+01 -.970E+01 0.861E+03   -.453E+01 0.969E+01 -.863E+03   -.279E+00 0.493E-01 0.754E+00   0.263E-03 0.430E-03 -.119E-02
   0.832E+01 0.157E+02 0.873E+03   -.856E+01 -.157E+02 -.875E+03   0.262E+00 -.602E-01 0.723E+00   0.156E-04 -.332E-03 -.125E-02
   0.847E+01 0.570E+01 0.873E+03   -.829E+01 -.573E+01 -.874E+03   -.242E+00 0.176E-01 0.294E+00   0.767E-03 -.450E-03 -.158E-02
   0.854E+01 -.121E+02 0.877E+03   -.878E+01 0.121E+02 -.878E+03   0.262E+00 -.413E-01 0.265E+00   -.118E-02 0.328E-03 -.618E-03
   -.354E+02 -.191E+02 -.528E+03   0.357E+02 0.186E+02 0.529E+03   -.262E+00 0.508E+00 -.949E+00   0.917E-03 0.722E-03 -.186E-02
   -.676E+01 0.214E+02 -.550E+03   0.635E+01 -.214E+02 0.551E+03   0.423E+00 -.352E-01 -.864E+00   -.436E-03 -.220E-02 -.293E-02
   -.398E+02 0.146E+02 -.427E+03   0.404E+02 -.147E+02 0.428E+03   -.560E+00 0.121E+00 -.273E+00   -.714E-03 -.766E-03 -.214E-02
   -.227E+02 -.197E+02 -.516E+03   0.222E+02 0.197E+02 0.517E+03   0.566E+00 -.258E-01 -.900E+00   -.507E-03 0.219E-02 -.191E-02
   -.107E+02 -.755E+01 -.576E+03   0.112E+02 0.753E+01 0.577E+03   -.421E+00 0.125E-01 -.877E+00   -.951E-03 0.189E-03 -.153E-02
   0.512E+02 0.281E+02 -.543E+03   -.515E+02 -.276E+02 0.544E+03   0.325E+00 -.489E+00 -.932E+00   0.101E-02 -.553E-03 -.127E-02
   0.391E+01 0.468E+01 -.548E+03   -.319E+01 -.473E+01 0.549E+03   -.720E+00 0.518E-01 -.922E+00   0.795E-03 -.271E-03 -.102E-02
   0.575E+02 -.201E+02 -.491E+03   -.579E+02 0.200E+02 0.492E+03   0.432E+00 0.268E-01 -.558E+00   0.114E-02 0.569E-03 -.874E-03
   0.189E+02 -.185E+02 -.167E+04   -.178E+02 0.186E+02 0.167E+04   -.110E+01 -.489E-01 0.385E+01   -.134E-03 0.840E-03 -.130E-02
   -.588E+02 0.240E+02 -.168E+04   0.577E+02 -.241E+02 0.168E+04   0.110E+01 0.571E-01 0.387E+01   0.453E-03 -.134E-02 0.100E-02
   -.135E+02 0.190E+02 -.162E+04   0.147E+02 -.190E+02 0.161E+04   -.114E+01 -.205E-02 0.382E+01   0.126E-03 -.776E-03 -.298E-03
   -.672E+02 -.237E+02 -.166E+04   0.661E+02 0.236E+02 0.166E+04   0.109E+01 0.255E-01 0.381E+01   0.109E-02 0.133E-02 0.784E-03
   0.102E+03 -.275E+02 -.164E+04   -.101E+03 0.277E+02 0.163E+04   -.962E+00 -.248E+00 0.402E+01   0.432E-03 -.291E-03 -.540E-04
   -.597E+02 0.713E+02 -.158E+04   0.587E+02 -.717E+02 0.157E+04   0.976E+00 0.418E+00 0.412E+01   -.354E-03 -.836E-03 -.113E-02
   0.194E+03 0.827E+02 -.149E+04   -.193E+03 -.834E+02 0.149E+04   -.864E+00 0.746E+00 0.265E+01   0.538E-03 0.470E-03 0.204E-03
   -.758E+02 -.147E+03 -.147E+04   0.753E+02 0.147E+03 0.147E+04   0.482E+00 -.201E+00 0.241E+01   -.117E-02 0.500E-03 0.553E-03
   0.402E+02 0.113E+03 -.910E+03   -.405E+02 -.113E+03 0.910E+03   0.229E+00 -.225E+00 0.159E+00   -.178E-03 -.227E-03 0.108E-02
   -.926E+02 0.466E+02 -.913E+03   0.967E+02 -.488E+02 0.917E+03   -.412E+01 0.216E+01 -.341E+01   -.242E-03 0.171E-03 0.126E-02
   -.754E+02 -.954E+02 -.907E+03   0.752E+02 0.957E+02 0.906E+03   0.217E+00 -.257E+00 0.247E+00   -.541E-04 0.308E-03 0.101E-02
   0.140E+03 -.740E+02 -.137E+04   -.163E+03 0.862E+02 0.137E+04   0.228E+02 -.122E+02 0.223E+01   0.233E-03 0.986E-03 0.194E-02
   0.248E+02 0.571E+02 -.203E+03   -.266E+02 -.610E+02 0.200E+03   0.182E+01 0.392E+01 0.320E+01   -.445E-04 -.488E-04 0.403E-03
   0.558E+02 -.434E+01 -.236E+03   -.601E+02 0.624E+01 0.239E+03   0.433E+01 -.192E+01 -.277E+01   -.566E-04 -.284E-04 0.121E-03
   -.337E+02 0.379E+02 -.235E+03   0.372E+02 -.402E+02 0.239E+03   -.355E+01 0.223E+01 -.354E+01   0.231E-05 -.710E-04 0.125E-03
   -.589E+02 0.308E+02 -.203E+03   0.629E+02 -.329E+02 0.200E+03   -.393E+01 0.207E+01 0.277E+01   -.109E-03 0.106E-04 0.434E-03
   0.352E+02 -.406E+02 -.236E+03   -.393E+02 0.430E+02 0.238E+03   0.408E+01 -.239E+01 -.278E+01   -.269E-04 0.666E-04 0.116E-03
   -.510E+02 0.635E+01 -.234E+03   0.548E+02 -.807E+01 0.238E+03   -.379E+01 0.173E+01 -.355E+01   0.271E-04 0.370E-04 0.111E-03
   -.376E+02 -.525E+02 -.200E+03   0.399E+02 0.563E+02 0.197E+03   -.232E+01 -.380E+01 0.320E+01   -.282E-04 0.604E-04 0.378E-03
 -----------------------------------------------------------------------------------------------
   -.150E+02 0.781E+01 0.106E+02   -.711E-13 0.995E-13 -.938E-12   0.150E+02 -.783E+01 -.102E+02   0.880E-03 0.102E-02 -.188E-01
 
 
 POSITION                                       TOTAL-FORCE (eV/Angst)
 -----------------------------------------------------------------------------------
      4.27999      4.01000      0.00000         0.223180     -0.008769      0.526431
      5.70701      6.01499      0.00000        -0.220767     -0.017146      0.550115
      4.27999      0.00000      0.00000         0.233852      0.035536      0.464614
      5.70701      2.00500      0.00000        -0.241490      0.020823      0.524315
      0.00000      4.01000      0.00000         0.221075      0.023238      0.546693
      1.42700      6.01499      0.00000        -0.218192     -0.003945      0.532813
      0.00000      0.00000      0.00000         0.231713     -0.015450      0.534270
      1.42700      2.00500      0.00000        -0.245472     -0.029058      0.491451
      6.42000      4.01000      1.23500        -0.033336     -0.024208     -0.493847
      7.84699      6.01499      1.23500         0.062970      0.023972     -0.491087
      6.42000      0.00000      1.23500         0.000771      0.009063     -0.527795
      7.84699      2.00500      1.23500         0.029428     -0.015604     -0.533144
      2.14000      4.01000      1.23500        -0.045676      0.042259     -0.603901
      3.56700      6.01499      1.23500         0.017272     -0.057457     -0.635001
      2.14000      0.00000      1.23500        -0.064667     -0.006079     -0.397875
      3.56700      2.00500      1.23500         0.025578      0.024397     -0.456161
      4.29404      3.99683      2.49259        -0.001250     -0.000287      0.000378
      5.69458      6.01534      2.50253         0.005692      0.006031      0.004124
      4.28876      8.01240      2.44137        -0.006717      0.004920     -0.007155
      5.67142      2.00005      2.49271         0.000727      0.002186     -0.000672
      0.01503      4.00880      2.50407        -0.006691     -0.009813      0.002214
      1.41009      6.03452      2.50061        -0.002582     -0.006523     -0.001791
      0.03215      0.00366      2.50108         0.006496      0.004170      0.005416
      1.42487      2.00639      2.45805         0.003015     -0.010349      0.003465
      6.47036      4.00701      3.62200         0.001403      0.004721     -0.004615
      7.79271      6.01383      3.62481         0.001032     -0.002049      0.004489
      6.48573      8.01743      3.61208        -0.004827      0.001939     -0.003262
      7.78162      2.00550      3.61051         0.000995     -0.008270     -0.006762
      2.18888      4.01164      3.60420         0.002542      0.005094     -0.004468
      3.51654      5.99905      3.59494        -0.003787      0.001580      0.003316
      2.16761      8.00107      3.69988         0.001511      0.000613     -0.000859
      3.53961      2.02742      3.69465         0.001942      0.002493     -0.010227
      3.31795      7.30751      6.90835         0.000197      0.003054     -0.006931
      3.96471      0.39564      6.09844         0.007386     -0.007406      0.007281
      4.49576      1.54030      6.94148        -0.002069     -0.005119     -0.004525
      3.00185      0.91752      5.16987        -0.002920     -0.001006      0.003317
      2.95718      6.50785      6.23690         0.009113      0.003822      0.000408
      2.45460      7.69869      7.46735         0.007759     -0.004062     -0.002194
      4.03667      6.86879      7.61545        -0.000851      0.002211     -0.009443
      4.80797      7.98019      5.50702        -0.003010      0.005576     -0.002151
      3.67525      2.01122      7.50270         0.001388     -0.000222      0.003165
      5.25423      1.17991      7.65138         0.001378      0.000086     -0.002821
      4.95980      2.29908      6.29239         0.005889      0.005039     -0.001587
 -----------------------------------------------------------------------------------
    total drift:                                0.016670     -0.018645      0.405067


--------------------------------------------------------------------------------------------------------



  FREE ENERGIE OF THE ION-ELECTRON SYSTEM (eV)
  ---------------------------------------------------
  free  energy   TOTEN  =      -270.85524648 eV

  energy  without entropy=     -270.81512845  energy(sigma->0) =     -270.84521697
 


--------------------------------------------------------------------------------------------------------


    POTLOK:  cpu time    0.42: real time    0.42


--------------------------------------------------------------------------------------------------------


 stress matrix after NEB project (eV)
    -24.45487     -0.31047      0.21631
     -0.31047    -23.25619     -0.04480
      0.21631     -0.04480     -7.68434
  FORCES: max atom, RMS     0.012744    0.006372
  FORCE total and by dimension    0.041785    0.010349
  Stress total and by dimension   34.615471   24.454872


--------------------------------------------------------------------------------------------------------


  
 reached required accuracy - stopping structural energy minimisation
     LOOP+:  cpu time 2238.62: real time 2238.92
    4ORBIT:  cpu time    0.00: real time    0.00

 total amount of memory used by VASP on root node   203281. kBytes
========================================================================

   base      :      30000. kBytes
   nonlr-proj:       7754. kBytes
   fftplans  :       7367. kBytes
   grid      :      34170. kBytes
   one-center:       1337. kBytes
   wavefun   :     122653. kBytes
 
  
  
 General timing and accounting informations for this job:
 ========================================================
  
                  Total CPU time used (sec):     2247.008
                            User time (sec):     2245.592
                          System time (sec):        1.416
                         Elapsed time (sec):     2248.507
  
                   Maximum memory used (kb):      244252.
                   Average memory used (kb):           0.
  
                          Minor page faults:       305702
                          Major page faults:           56
                 Voluntary context switches:         1167
