/*--------------------------------*- C++ -*----------------------------------*\
  =========                 |
  \\      /  F ield         | OpenFOAM: The Open Source CFD Toolbox
   \\    /   O peration     | Website:  https://openfoam.org
    \\  /    A nd           | Version:  8
     \\/     M anipulation  |
\*---------------------------------------------------------------------------*/
FoamFile
{
    version     2.0;
    format      ascii;
    class       volScalarField;
    location    "0.4";
    object      CH3CHOHCH3(s);
}
// * * * * * * * * * * * * * * * * * * * * * * * * * * * * * * * * * * * * * //

dimensions      [0 0 0 0 0 0 0];

internalField   uniform 0;

boundaryField
{
    reactingWall
    {
        type            fixedValue;
        value           nonuniform List<scalar> 
75
(
4.94865786055318978e-07
4.94865773486215285e-07
4.94865759173676593e-07
4.94865743237037035e-07
4.94865727661906586e-07
4.94865713429965303e-07
4.94865700073155062e-07
4.94865687031603284e-07
4.94865674200168193e-07
4.94865661794554988e-07
4.94865649903044195e-07
4.94865638449957761e-07
4.94865627326449941e-07
4.94865616420323069e-07
4.94865605268864433e-07
4.94865592396040559e-07
4.94865573360463095e-07
4.94865535761690394e-07
4.94865447332769954e-07
4.94865230123099396e-07
4.94864710497643303e-07
4.94863536126846772e-07
4.94861073617213374e-07
4.94856125029992799e-07
4.94846261696330754e-07
4.94830761157264371e-07
4.94811469861227211e-07
4.94783649426804539e-07
4.9473668464868259e-07
4.94659663779104616e-07
4.94535136905681156e-07
4.94336039542047455e-07
4.94021082766935374e-07
4.93528304381107005e-07
4.92766695979334795e-07
4.91606632416047659e-07
4.89871367939859143e-07
4.87336970587287477e-07
4.83677097308226242e-07
4.80750921974794281e-07
4.79010816268126527e-07
4.78062377686254368e-07
4.77510972439623094e-07
4.77148809967547394e-07
4.76798056756630732e-07
4.76419866187237762e-07
4.75929476120016104e-07
4.75421113930019272e-07
4.74766440677008407e-07
4.74001651620381902e-07
4.73121426031503143e-07
4.72197232794657642e-07
4.7108839330661244e-07
4.69908406153973482e-07
4.68664404791176739e-07
4.67257068645019422e-07
4.65720558342733648e-07
4.64157010682716128e-07
4.62444816833905528e-07
4.60319164140354385e-07
4.58105739011411988e-07
4.56069842929271577e-07
4.54280594871296047e-07
4.52616905131810379e-07
4.51086516041669639e-07
4.49790499897736779e-07
4.48136818075916902e-07
4.46540060798772907e-07
4.45226119939509808e-07
4.43671277841532767e-07
4.4168902877143314e-07
4.40024120976721059e-07
4.38210075477287143e-07
4.36287075863815186e-07
4.33738582896501957e-07
)
;
    }
    inertWall
    {
        type            zeroGradient;
    }
    inlet
    {
        type            fixedValue;
        value           uniform 0;
    }
    outlet
    {
        type            zeroGradient;
    }
    defaultFaces
    {
        type            empty;
    }
}


// ************************************************************************* //
