/*--------------------------------*- C++ -*----------------------------------*\
  =========                 |
  \\      /  F ield         | OpenFOAM: The Open Source CFD Toolbox
   \\    /   O peration     | Website:  https://openfoam.org
    \\  /    A nd           | Version:  8
     \\/     M anipulation  |
\*---------------------------------------------------------------------------*/
FoamFile
{
    version     2.0;
    format      ascii;
    class       volScalarField;
    location    "0.4";
    object      CH3COHCH3(s);
}
// * * * * * * * * * * * * * * * * * * * * * * * * * * * * * * * * * * * * * //

dimensions      [0 0 0 0 0 0 0];

internalField   uniform 0;

boundaryField
{
    reactingWall
    {
        type            fixedValue;
        value           nonuniform List<scalar> 
75
(
3.21139717899970201e-12
3.20670802915011765e-12
3.20116367016474417e-12
3.19455316647633815e-12
3.18794106980052691e-12
3.18120183366911945e-12
3.17401325466898662e-12
3.16568643321950994e-12
3.15721617294308087e-12
3.14800971813690495e-12
3.13802692958350708e-12
3.12700834947128929e-12
3.11510365287793746e-12
3.10251185820482442e-12
3.08875374894850267e-12
3.07484674198876557e-12
3.05974745825552697e-12
3.0427988397066663e-12
3.02418391711968617e-12
3.00395604163331912e-12
2.98208196756982519e-12
2.95853948591742753e-12
2.9331942397211758e-12
2.90588106438354472e-12
2.87648906299817342e-12
2.84490563666948981e-12
2.8108797339866615e-12
2.77432184013824257e-12
2.73499505834691349e-12
2.69270060035872696e-12
2.64722879269660057e-12
2.59815832080015538e-12
2.59042396232302379e-12
2.58244295298231017e-12
2.57460270874323556e-12
2.56689066179573988e-12
2.55963173252907049e-12
2.55329477222245054e-12
2.54855834060318144e-12
2.54570946972282777e-12
2.54398732774806769e-12
2.54277729246417606e-12
2.54166902690602068e-12
2.54049889179806368e-12
2.53910570744258262e-12
2.53759009257958442e-12
2.53571972649226479e-12
2.53375106993464239e-12
2.53142261660011177e-12
2.52901788123799442e-12
2.52624412102967392e-12
2.52338729232656885e-12
2.52023776836578298e-12
2.51697833473596255e-12
2.51323196993822668e-12
2.50900152524469156e-12
2.50499814708285959e-12
2.50081670823160946e-12
2.49653966179343265e-12
2.4924081211163842e-12
2.48861475350585453e-12
2.48513909230652796e-12
2.48193117039609162e-12
2.47857944672718338e-12
2.47519508028972003e-12
2.47189533474848117e-12
2.46828076816585892e-12
2.4646468541061183e-12
2.46081731278058111e-12
2.45690862421392062e-12
2.45301772443840362e-12
2.44929992541769231e-12
2.44580122771413089e-12
2.44210455879137336e-12
2.43604943523836702e-12
)
;
    }
    inertWall
    {
        type            zeroGradient;
    }
    inlet
    {
        type            fixedValue;
        value           uniform 0;
    }
    outlet
    {
        type            zeroGradient;
    }
    defaultFaces
    {
        type            empty;
    }
}


// ************************************************************************* //
