/*--------------------------------*- C++ -*----------------------------------*\
  =========                 |
  \\      /  F ield         | OpenFOAM: The Open Source CFD Toolbox
   \\    /   O peration     | Website:  https://openfoam.org
    \\  /    A nd           | Version:  8
     \\/     M anipulation  |
\*---------------------------------------------------------------------------*/
FoamFile
{
    version     2.0;
    format      ascii;
    class       volScalarField;
    location    "0.4";
    object      CH3CHOCH3(s);
}
// * * * * * * * * * * * * * * * * * * * * * * * * * * * * * * * * * * * * * //

dimensions      [0 0 0 0 0 0 0];

internalField   uniform 0;

boundaryField
{
    reactingWall
    {
        type            fixedValue;
        value           nonuniform List<scalar> 
75
(
1.37049207537369463e-07
1.35574381927445252e-07
1.33865482523240061e-07
1.31943864945231823e-07
1.30156762376609565e-07
1.28406678104595774e-07
1.26559452396239247e-07
1.24573306713198444e-07
1.22542072887212891e-07
1.20489214803931169e-07
1.1840618515542343e-07
1.16279907605967291e-07
1.14111655632627219e-07
1.11914785359580277e-07
1.09675496011838325e-07
1.07389772739742676e-07
1.05056847883528182e-07
1.02682508843720541e-07
1.00281187561939696e-07
9.78594812531676667e-08
9.54205841927582201e-08
9.29687300827596091e-08
9.05067889143736577e-08
8.80353113908696901e-08
8.55586461141702922e-08
8.30804128796128908e-08
8.05979920498535954e-08
7.81180384705953099e-08
7.56392356077779683e-08
7.31629820002654975e-08
7.06930634723943643e-08
6.82229590591400505e-08
6.8064682647810658e-08
6.79137257701103948e-08
6.7776921492452346e-08
6.76511930477467311e-08
6.75399252726684957e-08
6.74476786310913399e-08
6.73809197396284783e-08
6.73406445328907937e-08
6.73153708207091317e-08
6.72965859345175942e-08
6.72784910532657824e-08
6.72589497238876385e-08
6.72358767071606174e-08
6.72107862980759069e-08
6.7179839612053906e-08
6.71476472673861894e-08
6.71101518763934669e-08
6.70713588383086209e-08
6.70265064916350518e-08
6.69806753794697099e-08
6.69308124905604932e-08
6.68784751142783245e-08
6.68182010126066008e-08
6.67493334441857067e-08
6.66869511731431838e-08
6.66223068279189052e-08
6.65576333302504417e-08
6.6495709107046785e-08
6.64381371203232765e-08
6.6384811724145061e-08
6.63356994656626221e-08
6.62828026917754295e-08
6.62289722931772089e-08
6.61776401580404824e-08
6.61202143338412886e-08
6.60622414354508637e-08
6.60018515070704106e-08
6.59420535037035503e-08
6.58835877855079881e-08
6.58285420852311878e-08
6.57766086325164152e-08
6.57196030948932182e-08
6.56128439993756803e-08
)
;
    }
    inertWall
    {
        type            zeroGradient;
    }
    inlet
    {
        type            fixedValue;
        value           uniform 0;
    }
    outlet
    {
        type            zeroGradient;
    }
    defaultFaces
    {
        type            empty;
    }
}


// ************************************************************************* //
