/*--------------------------------*- C++ -*----------------------------------*\
  =========                 |
  \\      /  F ield         | OpenFOAM: The Open Source CFD Toolbox
   \\    /   O peration     | Website:  https://openfoam.org
    \\  /    A nd           | Version:  8
     \\/     M anipulation  |
\*---------------------------------------------------------------------------*/
FoamFile
{
    version     2.0;
    format      ascii;
    class       volScalarField;
    location    "0.4";
    object      CH3COCH3(s);
}
// * * * * * * * * * * * * * * * * * * * * * * * * * * * * * * * * * * * * * //

dimensions      [0 0 0 0 0 0 0];

internalField   uniform 0;

boundaryField
{
    reactingWall
    {
        type            fixedValue;
        value           nonuniform List<scalar> 
75
(
4.72073433277453526e-20
1.12679051946927464e-19
1.80288363881759407e-19
2.49421537028746426e-19
3.23671151605107625e-19
3.85846643802172665e-19
4.47507934839831319e-19
5.16886716209033094e-19
5.71750613534611001e-19
6.23083006040988574e-19
6.94233289430121188e-19
7.65980895304260983e-19
8.21961622746225157e-19
8.6325304570619957e-19
9.00815144803469781e-19
9.34991054389501925e-19
9.65249845227197469e-19
9.91680527703491112e-19
1.01458296578710215e-18
1.03409065506523524e-18
1.05026821345567633e-18
1.06307307817427571e-18
1.07244822190814269e-18
1.07842423570408711e-18
1.08100785021842989e-18
1.08028816067173331e-18
1.07709218973349488e-18
1.07117719253267276e-18
1.0615296059781e-18
1.04813871165100581e-18
1.03137061396719885e-18
1.01057238903392722e-18
9.88663644592174889e-19
9.65572665510458967e-19
9.4143881427355699e-19
9.16870944812896537e-19
8.92758677626616932e-19
8.68659553258360497e-19
8.41751711571992217e-19
8.22820313760765229e-19
8.12531495646837245e-19
8.0721848846072617e-19
8.04511987025585193e-19
8.0237567666863527e-19
8.00696481677188689e-19
7.98918825170498878e-19
7.97219632082516595e-19
7.95199948483724406e-19
7.93030551214854066e-19
7.90737900785472679e-19
7.88266539129578457e-19
7.85496477877582627e-19
7.82421207582482281e-19
7.79332056784887931e-19
7.76468371554053731e-19
7.73759672758818974e-19
7.70978402152417813e-19
7.67823536808665025e-19
7.637630653204714e-19
7.58443834844731499e-19
7.5305834673635249e-19
7.48230926534505248e-19
7.43908615393105596e-19
7.39907379320054295e-19
7.36876600014907128e-19
7.38313405244740649e-19
7.42208307752297142e-19
7.43341227232837767e-19
7.42190329376457352e-19
7.39925585007696772e-19
7.36191497006637722e-19
7.32547170247961973e-19
7.27975771956773671e-19
7.22362126970069953e-19
7.16650245320277708e-19
)
;
    }
    inertWall
    {
        type            zeroGradient;
    }
    inlet
    {
        type            fixedValue;
        value           uniform 0;
    }
    outlet
    {
        type            zeroGradient;
    }
    defaultFaces
    {
        type            empty;
    }
}


// ************************************************************************* //
