/*--------------------------------*- C++ -*----------------------------------*\
  =========                 |
  \\      /  F ield         | OpenFOAM: The Open Source CFD Toolbox
   \\    /   O peration     | Website:  https://openfoam.org
    \\  /    A nd           | Version:  8
     \\/     M anipulation  |
\*---------------------------------------------------------------------------*/
FoamFile
{
    version     2.0;
    format      ascii;
    class       volScalarField;
    location    "0.4";
    object      gas::MW;
}
// * * * * * * * * * * * * * * * * * * * * * * * * * * * * * * * * * * * * * //

dimensions      [1 0 0 0 -1 0 0];

internalField   nonuniform List<scalar> 
1800
(
29.2637880557518812
29.2637880557518884
29.2637880557518812
29.2637880557518812
29.2637880557518812
29.2637880557518812
29.2637880557518812
29.2637880557518812
29.2637880557518812
29.2637880557518884
29.2637880557518919
29.2637880557518919
29.2637880557518884
29.2637880557518812
29.2637880557518812
29.2637880557518812
29.2637880557518812
29.2637880557518812
29.2637880557518812
29.2637880557518812
29.2637880557518812
29.2637880557518812
29.2637880557518812
29.2637880557518812
29.2637880557518812
29.2637880557518812
29.2637880557518812
29.2637880557518812
29.2637880557518812
29.2637880557518812
29.2637880557518812
29.2637880557518812
29.2637880557518812
29.2637880557518812
29.2637880557518812
29.2637880557518812
29.2637880557518812
29.2637880557518812
29.2637880557518812
29.2637880557518812
29.2637880557518812
29.2637880557518812
29.2637880557518812
29.2637880557518812
29.2637880557518812
29.2637880557518812
29.2637880557518812
29.2637880557518884
29.2637880557518812
29.2637880557518812
29.2637880557518812
29.2637880557518812
29.2637880557518812
29.2637880557518812
29.2637880557518812
29.2637880557518812
29.2637880557518812
29.2637880557518812
29.2637880557518812
29.2637880557518812
29.2637880557518812
29.2637880557518812
29.2637880557518812
29.2637880557518812
29.2637880557518812
29.2637880557518812
29.2637880557518812
29.2637880557518812
29.2637880557518812
29.2637880557518741
29.2637880557518812
29.2637880557518812
29.2637880557518812
29.2637880557518812
29.2637880557518812
29.2637880557518812
29.2637880557518812
29.2637880557518812
29.2637880557518812
29.2637880557518812
29.2637880557518812
29.2637880557518812
29.2637880557518812
29.2637880557518741
29.2637880557518741
29.2637880557518812
29.2637880557518812
29.2637880557518812
29.2637880557518812
29.2637880557518741
29.2637880557518812
29.2637880557518812
29.2637880557518812
29.2637880557518812
29.2637880557518812
29.2637880557518812
29.2637880557518812
29.2637880557518812
29.2637880557518812
29.2637880557518812
29.2637880557518812
29.2637880557518812
29.2637880557518812
29.2637880557518741
29.2637880557518812
29.2637880557518812
29.2637880557518812
29.2637880557518812
29.2637880557518812
29.2637880557518812
29.2637880557518812
29.2637880557518812
29.2637880557518812
29.2637880557518812
29.2637880557518812
29.2637880557518812
29.2637880557518812
29.2637880557518812
29.2637880557518812
29.2637880557518812
29.2637880557518741
29.2637880557518812
29.2637880557518812
29.2637880557518812
29.2637880557518812
29.2637880557518812
29.2637880557518812
29.2637880557518812
29.2637880557518812
29.2637880557518812
29.2637880557518812
29.2637880557518812
29.2637880557518884
29.2637880557518812
29.2637880557518884
29.2637880557518812
29.2637880557518812
29.2637880557518812
29.2637880557518812
29.2637880557518812
29.2637880557518812
29.2637880557518812
29.2637880557518812
29.2637880557518812
29.2637880557518812
29.2637880557518812
29.2637880557518812
29.2637880557518812
29.2637880557518812
29.2637880557518812
29.2637880557518884
29.2637880557518812
29.2637880557518812
29.2637880557518884
29.2637880557518812
29.2637880557518812
29.2637880557518812
29.2637880557518812
29.2637880557518812
29.2637880557518812
29.2637880557518812
29.2637880557518812
29.2637880557518812
29.2637880557518812
29.2637880557518741
29.2637880557518884
29.2637880557518812
29.2637880557518884
29.2637880557518812
29.2637880557518812
29.2637880557518812
29.2637880557518812
29.2637880557518741
29.2637880557518812
29.2637880557518812
29.2637880557518812
29.2637880557518812
29.2637880557518812
29.2637880557518812
29.2637880557518812
29.2637880557518884
29.2637880557518812
29.2637880557518741
29.2637880557518812
29.2637880557518741
29.2637880557518812
29.2637880557518812
29.2637880557518812
29.2637880557518812
29.2637880557518812
29.2637880557518812
29.2637880557518812
29.2637880557518812
29.2637880557518812
29.2637880557518812
29.2637880557518812
29.2637880557518812
29.2637880557518812
29.2637880557518812
29.2637880557518741
29.2637880557518812
29.2637880557518812
29.2637880557518812
29.2637880557518812
29.2637880557518812
29.2637880557518812
29.2637880557518741
29.2637880557518812
29.2637880557518812
29.2637880557518812
29.2637880557518812
29.2637880557518812
29.2637880557518812
29.2637880557518812
29.2637880557518812
29.2637880557518812
29.2637880557518741
29.2637880557518812
29.2637880557518812
29.2637880557518812
29.2637880557518812
29.2637880557518812
29.2637880557518812
29.2637880557518812
29.2637880557518812
29.2637880557518812
29.2637880557518884
29.2637880557518812
29.2637880557518812
29.2637880557518812
29.2637880557518812
29.2637880557518812
29.2637880557518812
29.2637880557518812
29.2637880557518812
29.2637880557518812
29.2637880557518812
29.2637880557518812
29.2637880557518812
29.2637880557518812
29.2637880557518812
29.2637880557518812
29.2637880557518812
29.2637880557518812
29.2637880557518812
29.2637880557518812
29.2637880557518812
29.2637880557518812
29.2637880557518812
29.2637880557518812
29.2637880557518812
29.2637880557518812
29.2637880557518812
29.2637880557518812
29.2637880557518812
29.2637880557518812
29.2637880557518884
29.2637880557518884
29.2637880557518884
29.2637880557518812
29.2637880557518812
29.2637880557518812
29.2637880557518812
29.2637880557518812
29.2637880557518812
29.2637880557518884
29.2637880557518812
29.2637880557518884
29.2637880557518884
29.2637880557518812
29.2637880557518812
29.2637880557518812
29.2637880557518884
29.2637880557518812
29.2637880557518812
29.2637880557518812
29.2637880557518812
29.2637880557518812
29.2637880557518812
29.2637880557518812
29.2637880557518812
29.2637880557518812
29.2637880557518812
29.2637880557518812
29.2637880557517924
29.2637880557518812
29.2637880557518884
29.2637880557518884
29.2637880557518812
29.2637880557518812
29.2637880557518812
29.2637880557518812
29.2637880557518812
29.2637880557518812
29.2637880557518812
29.2637880557518884
29.2637880557518812
29.2637880557518884
29.2637880557518635
29.2637880557502825
29.2637880557518884
29.2637880557518884
29.2637880557518884
29.2637880557518812
29.2637880557518812
29.2637880557518812
29.2637880557518635
29.2637880557517818
29.263788055751327
29.2637880557490355
29.2637880557380967
29.2637880556891083
29.2637880554838752
29.2637880546812283
29.2637880517608941
29.2637880419065795
29.2637880111698472
29.2637879228602742
29.2637876900571641
29.2637871296334389
29.2637859069426902
29.2637834523970817
29.2637786181781117
29.2637692907371338
29.2637516712747185
29.2637190773878473
29.2636600174473038
29.2635551846438275
29.2633729070338511
29.2630624884739596
29.262544816621034
29.2616996509921989
29.2603492092608874
29.2582381194838064
29.2550104049714506
29.2501844732549223
29.2431342201633235
29.2332842407870004
29.2206615651647503
29.2049581746634388
29.1859571657902919
29.164746589650111
29.1394409393902336
29.1120280173689849
29.0818316104711805
29.0506409433040389
29.0180573174568011
28.9859664762265545
28.9545177916575192
28.9245690617095867
28.8961131780877807
28.8696577013772711
28.8449007684131224
28.8225878108996625
28.8018890212607523
28.7823713699868051
28.7639428021977253
28.746885854284713
28.7305994489496968
28.715402452510407
28.7001265678732551
28.6823716658598791
28.6625553125309054
28.6406666939311663
28.619599078305729
28.602230018825086
28.5847555770783686
28.5669910512011
28.5507204049983834
28.5354321450717308
28.5207573226214954
28.5069593049164034
28.4943763404671522
28.4798305957941089
28.4584266163357142
29.2637880557518812
29.2637880557518884
29.2637880557518884
29.2637880557518884
29.2637880557518812
29.2637880557518884
29.2637880557518884
29.2637880557518741
29.2637880557518457
29.2637880557517036
29.263788055751025
29.2637880557480052
29.2637880557355032
29.2637880556869305
29.2637880555105845
29.2637880549139986
29.2637880530383576
29.2637880475730512
29.2637880328560733
29.2637879963695369
29.2637879138334043
29.2637877466435832
29.2637874174601293
29.2637867827559681
29.2637855842641521
29.2637833659583428
29.263779338184623
29.2637721605976644
29.2637596041054486
29.2637380383375572
29.2637016764695588
29.2636414962631584
29.2635437494298216
29.2633879773424326
29.2631444809204417
29.2627712828383117
29.2622108153870251
29.2613857770980914
29.2601800992100891
29.2586027195970182
29.2562979378985197
29.2537084585335911
29.2501472826207483
29.2461395029507045
29.240739375628177
29.2349020910919855
29.2282178077126424
29.2198970003720362
29.2105517217661514
29.2024416393781294
29.191672913826725
29.1801182130114292
29.169357253238541
29.1589598583661491
29.1450474099975807
29.1316448482632886
29.1214517989184536
29.1088540630414521
29.092297399888956
29.0783759268022024
29.0675544112296471
29.0536612056498704
29.0393374893984166
29.0266538623345767
29.0151132010386306
29.0003447839303661
28.9827004150731895
28.9619282711768271
28.9424735719159756
28.9291571567488361
28.9186372696392695
28.9045168161812178
28.8840569852672004
28.8649643122543687
28.8515707218357882
29.2637880557518812
29.2637880557518812
29.2637880557518812
29.2637880557518812
29.2637880557518812
29.2637880557518812
29.2637880557518812
29.2637880557518741
29.2637880557518812
29.2637880557518706
29.2637880557518173
29.2637880557515899
29.2637880557506556
29.2637880557470567
29.2637880557339933
29.2637880556897798
29.2637880555501368
29.2637880551399476
29.2637880540217878
29.2637880512022051
29.2637880446832703
29.2637880313325454
29.2637880050290136
29.2637879543208506
29.2637878586316695
29.2637876816329978
29.2637873603399576
29.2637867875465894
29.2637857841597331
29.2637840566384746
29.263781133127079
29.2637762700966775
29.2637683196004978
29.2637555458000769
29.2637353778052578
29.2637040808803448
29.2636563070667926
29.2635844041489968
29.263477002180629
29.2633307878229552
29.2631180313491903
29.2628441268729595
29.2624571525967312
29.2619526955709617
29.2614030767526963
29.2606559078125876
29.2595989011358277
29.2585885136930557
29.2571885634297288
29.2557625668727574
29.2538855454303182
29.2520766940954964
29.2496050424160003
29.2471214206532331
29.2446565901858939
29.2412739554438339
29.2381866900452785
29.2349765397405861
29.23066422089898
29.2261826205129438
29.2231068576248134
29.2195188610122614
29.2161529565771936
29.2127323490257638
29.2081623102778742
29.2018656701328112
29.1955062032674206
29.189689508804328
29.1819679084094439
29.1747280155017741
29.1687786740158614
29.1621879773290154
29.153389437909194
29.1446429816332149
29.1368045719552171
29.2637880557518812
29.2637880557518812
29.2637880557518812
29.2637880557518812
29.2637880557518812
29.2637880557518812
29.2637880557518741
29.2637880557518812
29.2637880557518812
29.2637880557518812
29.2637880557518812
29.2637880557518635
29.2637880557518031
29.2637880557515544
29.2637880557506698
29.2637880557476677
29.2637880557381855
29.263788055710144
29.2637880556328689
29.2637880554349685
29.2637880549681277
29.2637880540001873
29.2637880520914386
29.2637880484120068
29.2637880414745197
29.2637880286561227
29.2637880054087418
29.2637879639780998
29.2637878913661957
29.2637877661556445
29.2637875536644394
29.2637871987162015
29.2637866151007842
29.2637856705780557
29.2637841660642515
29.2637818074559419
29.2637781684386624
29.2637726428906255
29.2637643886669672
29.2637522894038646
29.2637346604521902
29.2637100432730612
29.2636746774448753
29.2636235068709851
29.2635665695162999
29.2634875304418465
29.2633723319223407
29.2632519484992955
29.2630812795613835
29.2628973898989102
29.2626370518912857
29.2623881081900663
29.2620574615334164
29.2616378132955752
29.2612456113680217
29.2606930708131792
29.2601816920829982
29.2595174707382455
29.2587583504727888
29.2580210153035196
29.257125053837008
29.2561652351102275
29.2553552597049453
29.2542646719443482
29.2532200660885202
29.2520678428553182
29.2505129751859272
29.248981178986508
29.2473860725681618
29.2454207512778552
29.2435549332094062
29.2417725183827706
29.2393785808176041
29.2366310747079012
29.2342325488853731
29.2637880557518812
29.2637880557518812
29.2637880557518812
29.2637880557518812
29.2637880557518812
29.2637880557518812
29.2637880557518812
29.2637880557518884
29.2637880557518812
29.2637880557518812
29.2637880557518812
29.2637880557518812
29.2637880557518812
29.2637880557518635
29.2637880557518031
29.2637880557516006
29.2637880557509646
29.2637880557490746
29.2637880557438237
29.2637880557301671
29.2637880556973968
29.2637880556283108
29.2637880554917515
29.2637880552280301
29.2637880547302238
29.2637880538098329
29.2637880521397129
29.2637880491611106
29.2637880439346709
29.2637880349059714
29.2637880195432984
29.2637879937889025
29.2637879512439625
29.2637878819825907
29.2637877708610326
29.2637875951545752
29.2637873213161335
29.2637869006180367
29.263786263495664
29.2637853129497216
29.2637839114486766
29.2637818667961689
29.2637788871254827
29.2637745065642108
29.2637690882172485
29.2637615839158904
29.2637505695426796
29.2637377382583281
29.2637196879653665
29.263699204332319
29.2636700118158011
29.2636392566257584
29.2635996523410533
29.2635445964330678
29.2634914139349185
29.2634169637345778
29.2633396844979359
29.2632470189728444
29.2631178868705817
29.2630088249915907
29.2628793471318893
29.2627046421049961
29.2625634337349574
29.2623753736147698
29.2621481876081759
29.2619176959772105
29.2616159961421936
29.2612987003975427
29.2609562431290051
29.2605707048721193
29.2601759549421629
29.2597509102621913
29.2592774772926383
29.2586788823535322
29.2580357370736159
29.2637880557518812
29.2637880557518741
29.2637880557518812
29.2637880557518812
29.2637880557518812
29.2637880557518812
29.2637880557518812
29.2637880557518812
29.2637880557518812
29.2637880557518812
29.2637880557518812
29.2637880557518812
29.2637880557518812
29.2637880557518812
29.2637880557518741
29.2637880557518635
29.2637880557518208
29.2637880557517036
29.263788055751359
29.2637880557504602
29.2637880557482681
29.2637880557435395
29.2637880557341745
29.2637880557160273
29.2637880556816867
29.2637880556180683
29.2637880555024203
29.2637880552958016
29.2637880549325402
29.263788054303479
29.2637880532298702
29.2637880514232869
29.2637880484250914
29.2637880435168718
29.2637880355898687
29.2637880229582912
29.2637880030966855
29.2637879722762371
29.2637879250679305
29.2637878536655016
29.2637877469119658
29.2637875889122334
29.2637873567523634
29.2637870186511719
29.2637865503398338
29.2637858930696417
29.2637849653965745
29.2637837390005053
29.2637821176671871
29.2637800309513771
29.2637771476779633
29.2637736481695541
29.2637694772589221
29.2637634569322778
29.2637571859810812
29.2637485222343763
29.2637390220651845
29.2637272795296859
29.2637107577589184
29.2636956850071854
29.2636769219781847
29.2636511641221304
29.2636290676945841
29.2635997835500312
29.2635648818269019
29.2635256619198216
29.2634808002500648
29.2634296496962527
29.263369093779751
29.2633013212339641
29.2632342217135175
29.2631543453581067
29.2630661759828676
29.2629520900311135
29.2628160577729552
29.2637880557518812
29.2637880557518812
29.2637880557518812
29.2637880557518812
29.2637880557518812
29.2637880557518741
29.2637880557518812
29.2637880557518741
29.2637880557518812
29.2637880557518812
29.2637880557518812
29.2637880557518812
29.2637880557518812
29.2637880557518812
29.2637880557518812
29.2637880557518812
29.2637880557518812
29.2637880557518706
29.2637880557518528
29.2637880557517924
29.2637880557516539
29.2637880557513412
29.2637880557507337
29.2637880557495329
29.2637880557472627
29.2637880557430385
29.2637880557353434
29.2637880557215517
29.2637880556972299
29.2637880556549739
29.2637880555825909
29.2637880554602887
29.2637880552563274
29.2637880549205889
29.2637880543749134
29.2637880534990593
29.2637880521105984
29.2637880499362382
29.2637880465717615
29.2637880414263876
29.2637880336452341
29.2637880220018758
29.2637880047504702
29.2637879794487183
29.2637879428380501
29.2637878901793478
29.2637878144116215
29.263787704110225
29.2637875729209895
29.2637873904806618
29.2637871395954399
29.2637867891158621
29.2637863843493164
29.2637858017013883
29.2637851393597614
29.2637842237878125
29.2637832195509198
29.2637818914087866
29.2637800228235427
29.2637782586589843
29.2637759518523026
29.2637728713747585
29.2637700615386152
29.2637662534230287
29.2637616593946923
29.2637557704325566
29.2637493391158827
29.2637422735117667
29.2637329005256674
29.2637222695867614
29.2637122720423868
29.2637002237540038
29.2636857700101061
29.2636677914067285
29.2636440598906518
29.2637880557518812
29.2637880557518741
29.2637880557518812
29.2637880557518812
29.2637880557518812
29.2637880557518812
29.2637880557518812
29.2637880557518812
29.2637880557518812
29.2637880557518812
29.2637880557518812
29.2637880557518812
29.2637880557518812
29.2637880557518812
29.2637880557518812
29.2637880557518812
29.2637880557518812
29.2637880557518812
29.2637880557518812
29.2637880557518812
29.2637880557518741
29.2637880557518528
29.2637880557518173
29.2637880557517391
29.263788055751597
29.263788055751327
29.2637880557508403
29.2637880557499628
29.2637880557483996
29.2637880557456782
29.2637880557410064
29.2637880557330732
29.2637880557197754
29.2637880556977663
29.2637880556617596
29.2637880556035732
29.2637880555106094
29.263788055363797
29.2637880551345475
29.2637880547804698
29.2637880542393916
29.2637880534209849
29.2637880521951921
29.2637880503768244
29.2637880477064947
29.263788043814607
29.2637880381606585
29.2637880298712787
29.2637880192176887
29.2637880040858356
29.2637879829741578
29.2637879532911107
29.2637879172381403
29.2637878657174895
29.263787804221792
29.263787718775891
29.2637876230865359
29.2637874932618516
29.2637873092735568
29.2637871152693023
29.2637868494852285
29.2637865375459292
29.2637861965596109
29.2637857354025819
29.2637852008537429
29.2637845026630323
29.2637837233009286
29.2637828369923518
29.2637816495654235
29.2637802342426383
29.2637788570044464
29.2637773252046571
29.2637752498678338
29.263772699237844
29.2637689985391063
29.2637880557518812
29.2637880557518812
29.2637880557518884
29.2637880557518884
29.2637880557518812
29.2637880557518812
29.2637880557518812
29.2637880557518812
29.2637880557518812
29.2637880557518812
29.2637880557518812
29.2637880557518812
29.2637880557518812
29.2637880557518812
29.2637880557518812
29.2637880557518812
29.2637880557518812
29.2637880557518812
29.2637880557518812
29.2637880557518812
29.2637880557518812
29.2637880557518812
29.2637880557518741
29.2637880557518741
29.2637880557518635
29.2637880557518528
29.2637880557518173
29.2637880557517605
29.2637880557516681
29.2637880557515082
29.2637880557512169
29.2637880557507266
29.2637880557498953
29.2637880557485168
29.2637880557462466
29.2637880557425589
29.2637880557366081
29.2637880557271508
29.2637880557122401
29.2637880556890053
29.2637880556531549
29.2637880555983934
29.2637880555155228
29.2637880553912986
29.2637880552067848
29.2637880549351195
29.2637880545385691
29.2637880539654738
29.2637880531512771
29.2637880520053137
29.2637880504081309
29.2637880481971884
29.2637880451856169
29.2637880409788984
29.2637880358954519
29.2637880290264505
29.2637880204531768
29.2637880087419724
29.2637879923791999
29.2637879728628292
29.2637879466571
29.2637879184682745
29.2637878837156897
29.2637878369043456
29.2637877802396105
29.2637877054796363
29.2637876221066939
29.2637875183642606
29.2637873796718786
29.2637872078600019
29.2637870415236847
29.2637868573736313
29.2637866071321966
29.2637862960220723
29.2637858046851562
29.2637880557518812
29.2637880557518812
29.2637880557518812
29.2637880557518812
29.2637880557518812
29.2637880557518812
29.2637880557518812
29.2637880557518741
29.2637880557518812
29.2637880557518812
29.2637880557518812
29.2637880557518812
29.2637880557518812
29.2637880557518812
29.2637880557518812
29.2637880557518812
29.2637880557518812
29.2637880557518812
29.2637880557518812
29.2637880557518812
29.2637880557518812
29.2637880557518812
29.2637880557518812
29.2637880557518812
29.2637880557518812
29.2637880557518812
29.2637880557518812
29.2637880557518812
29.2637880557518812
29.2637880557518635
29.2637880557518528
29.2637880557518173
29.2637880557517747
29.2637880557516858
29.2637880557515473
29.2637880557513164
29.2637880557509433
29.2637880557503465
29.2637880557494015
29.2637880557479235
29.2637880557456107
29.2637880557420473
29.2637880557366046
29.2637880557283658
29.263788055716013
29.2637880556976455
29.2637880556705845
29.2637880556310854
29.2637880555741141
29.2637880554927214
29.2637880553776384
29.2637880552166081
29.2637880549938991
29.2637880546889555
29.2637880542839106
29.2637880537451096
29.2637880530199723
29.2637880520171123
29.2637880506635284
29.2637880489993805
29.2637880466499674
29.2637880438993214
29.263788040487789
29.2637880358421683
29.2637880301406526
29.2637880232199201
29.2637880150019889
29.2637880037902356
29.2637879889101171
29.2637879697262733
29.2637879512800438
29.2637879304220156
29.263787901981523
29.2637878646485952
29.2637878037702279
29.2637880557518812
29.2637880557518812
29.2637880557518812
29.2637880557518812
29.2637880557518812
29.2637880557518741
29.2637880557518812
29.2637880557518812
29.2637880557518812
29.2637880557518884
29.2637880557518812
29.2637880557518812
29.2637880557518812
29.2637880557518812
29.2637880557518812
29.2637880557518812
29.2637880557518812
29.2637880557518812
29.2637880557518812
29.2637880557518812
29.2637880557518812
29.2637880557518812
29.2637880557518812
29.2637880557518812
29.2637880557518812
29.2637880557518812
29.2637880557518812
29.2637880557518812
29.2637880557518812
29.2637880557518812
29.2637880557518741
29.2637880557518635
29.2637880557518351
29.2637880557517924
29.263788055751732
29.2637880557516254
29.2637880557514585
29.263788055751192
29.2637880557507764
29.2637880557501333
29.2637880557491528
29.2637880557476606
29.2637880557454082
29.2637880557420758
29.2637880557371552
29.2637880557299823
29.2637880557196262
29.2637880557048113
29.2637880556838113
29.2637880556542385
29.263788055612892
29.2637880555555085
29.2637880554764642
29.2637880553683694
29.2637880552209779
29.2637880550191056
29.2637880547384519
29.2637880543425091
29.2637880538569384
29.263788053178871
29.2637880522431146
29.263788050964223
29.2637880492121596
29.2637880467302232
29.2637880438739373
29.2637880403753208
29.26378803564252
29.2637880293546928
29.2637880208662544
29.263788010721651
29.2637879987223677
29.263787983674419
29.2637879646174568
29.2637879402529428
29.2637878999195777
29.2637880557518812
29.2637880557518812
29.2637880557518812
29.2637880557518812
29.2637880557518812
29.2637880557518812
29.2637880557518812
29.2637880557518812
29.2637880557518812
29.2637880557518812
29.2637880557518812
29.2637880557518812
29.2637880557518812
29.2637880557518812
29.2637880557518812
29.2637880557518812
29.2637880557518812
29.2637880557518741
29.2637880557518812
29.2637880557518812
29.2637880557518812
29.2637880557518812
29.2637880557518812
29.2637880557518812
29.2637880557518812
29.2637880557518706
29.2637880557518564
29.2637880557518351
29.2637880557517853
29.2637880557517143
29.2637880557515828
29.2637880557513697
29.2637880557510144
29.2637880557504175
29.2637880557494618
29.2637880557479129
29.2637880557454579
29.2637880557416068
29.2637880557356453
29.2637880557265255
29.2637880557127268
29.2637880556920607
29.2637880556614682
29.2637880556167111
29.2637880555520553
29.2637880554598055
29.2637880553297194
29.263788055148094
29.2637880548965157
29.2637880545503215
29.2637880540768371
29.263788053434169
29.2637880525711154
29.2637880514308328
29.2637880499106622
29.2637880478642778
29.2637880450784245
29.2637880412910292
29.2637880362137039
29.2637880294460508
29.2637880204208862
29.2637880083139379
29.2637879919641506
29.2637879697825873
29.2637879396910492
29.2637879062434472
29.2637878619334977
29.2637878011817456
29.263787715386183
29.263787591235829
29.2637875058259773
29.2637874210557776
29.2637872987309073
29.2637871266756022
29.2637868366273821
29.2637880557518812
29.2637880557518812
29.2637880557518812
29.2637880557518884
29.2637880557518884
29.2637880557518812
29.2637880557518812
29.2637880557518812
29.2637880557518884
29.2637880557518884
29.2637880557518919
29.2637880557518919
29.2637880557518884
29.2637880557518812
29.2637880557518812
29.2637880557518812
29.2637880557518812
29.2637880557518812
29.2637880557518812
29.2637880557518812
29.2637880557518812
29.2637880557518706
29.2637880557518528
29.2637880557518102
29.2637880557517427
29.2637880557516148
29.2637880557513768
29.2637880557509469
29.2637880557502008
29.2637880557489112
29.263788055746712
29.2637880557430279
29.2637880557369314
29.2637880557269661
29.2637880557108616
29.2637880556851613
29.2637880556446994
29.2637880555819443
29.2637880554858896
29.2637880553406937
29.2637880551236833
29.2637880548027312
29.2637880543333395
29.2637880536559578
29.2637880526930587
29.2637880513447044
29.2637880494831641
29.2637880469354172
29.2637880434632898
29.2637880387369407
29.2637880323071506
29.263788023651383
29.2637880124583596
29.2637879989514751
29.2637879812406609
29.2637879574507451
29.2637879251281952
29.2637878810653547
29.2637878224928691
29.2637877468773873
29.2637876452667847
29.2637875045558502
29.2637872974203326
29.2637869552308274
29.2637866621650602
29.2637863779993239
29.2637860080771226
29.2637855787820591
29.2637850820786412
29.2637844028240828
29.2637834616794592
29.263782536472462
29.2637813445043058
29.2637797246589066
29.2637771615488944
29.2637880557518812
29.2637880557518812
29.2637880557518812
29.2637880557518812
29.2637880557518812
29.2637880557518812
29.2637880557518812
29.2637880557518812
29.2637880557518812
29.2637880557518812
29.2637880557518812
29.2637880557518812
29.2637880557518812
29.2637880557518812
29.2637880557518812
29.2637880557518812
29.2637880557518741
29.2637880557518706
29.2637880557518635
29.2637880557518351
29.2637880557517676
29.2637880557516148
29.2637880557512915
29.2637880557506698
29.2637880557494583
29.2637880557471988
29.2637880557430883
29.2637880557357484
29.2637880557229586
29.2637880557010739
29.2637880556642465
29.2637880556031291
29.2637880555028751
29.2637880553400826
29.2637880550785532
29.2637880546637632
29.2637880540163984
29.2637880530232941
29.2637880515227486
29.263788049282482
29.2637880459675479
29.2637880410983442
29.2637880340227348
29.2637880239718235
29.263788010112826
29.263787991356832
29.2637879662986258
29.2637879331215984
29.2637878888573688
29.2637878295722231
29.2637877494648464
29.2637876413818674
29.2637875169888737
29.263787367086163
29.2637871656092443
29.2637868835249719
29.2637864644225658
29.2637857748261823
29.2637852014145601
29.2637845693485446
29.2637837631784734
29.2637825842728674
29.2637809297712366
29.2637791735641564
29.2637770020539065
29.2637740496602881
29.263769932645598
29.2637657597185274
29.2637609201921904
29.2637544417561806
29.263746777900348
29.2637392437056718
29.2637300487231364
29.2637174177717618
29.2636976643117706
29.2637880557518812
29.2637880557518812
29.2637880557518812
29.2637880557518812
29.2637880557518812
29.2637880557518812
29.2637880557518812
29.2637880557518812
29.2637880557518812
29.2637880557518741
29.2637880557518741
29.2637880557518706
29.2637880557518706
29.2637880557518635
29.2637880557518564
29.2637880557518386
29.2637880557518031
29.2637880557517249
29.2637880557515544
29.2637880557511103
29.2637880557499805
29.2637880557472982
29.263788055741756
29.2637880557308812
29.2637880557101298
29.2637880556716254
29.2637880556019816
29.2637880554790009
29.2637880552665237
29.2637880549068932
29.263788054308435
29.2637880533242694
29.2637880517183433
29.2637880491135434
29.2637880449199699
29.2637880382633533
29.2637880280249583
29.2637880127310375
29.2637879901979261
29.2637879572431281
29.2637879092566315
29.2637878396286411
29.2637877395379462
29.2637875994036243
29.2637874107468718
29.2637871587050249
29.2637868533065806
29.2637864469950344
29.2637858950124077
29.2637851039066206
29.2637838190020148
29.2637827944081792
29.2637817294909937
29.2637804331276357
29.2637788849201463
29.2637767544148311
29.2637738825509892
29.2637700357283634
29.2637648966045134
29.2637580225111407
29.2637489346559541
29.2637377792115778
29.263724393378066
29.2637087430817679
29.26368857776189
29.2636617127232093
29.2636266935328777
29.2635944749085617
29.2635560841514248
29.2635084943220427
29.2634599176058714
29.2634069845681992
29.2633366471334355
29.2632481461771583
29.2631141699853465
29.2637880557518812
29.2637880557518812
29.2637880557518812
29.2637880557518812
29.2637880557518741
29.2637880557518706
29.2637880557518635
29.2637880557518528
29.263788055751828
29.2637880557518031
29.2637880557517747
29.2637880557517249
29.2637880557516681
29.2637880557515793
29.2637880557514407
29.263788055751192
29.2637880557507088
29.2637880557495862
29.2637880557466801
29.2637880557390559
29.2637880557196546
29.2637880556735084
29.2637880555792123
29.2637880553946914
29.2637880550441523
29.2637880543974518
29.2637880532360377
29.2637880511999633
29.263788047714808
29.2637880419316261
29.2637880325384998
29.2637880173478919
29.2637879927798075
29.2637879530524643
29.2637878890782126
29.263787787610628
29.2637876335146245
29.2637874081975013
29.2637870819842689
29.2637866081326976
29.2637859080849694
29.2637848388582924
29.2637831896863574
29.2637807846848084