/*--------------------------------*- C++ -*----------------------------------*\
  =========                 |
  \\      /  F ield         | OpenFOAM: The Open Source CFD Toolbox
   \\    /   O peration     | Website:  https://openfoam.org
    \\  /    A nd           | Version:  8
     \\/     M anipulation  |
\*---------------------------------------------------------------------------*/
FoamFile
{
    version     2.0;
    format      ascii;
    class       volScalarField;
    location    "0.4";
    object      gas::cTot;
}
// * * * * * * * * * * * * * * * * * * * * * * * * * * * * * * * * * * * * * //

dimensions      [0 -3 0 0 1 0 0];

internalField   nonuniform List<scalar> 
1800
(
0.0291546105657943394
0.0291546008369307462
0.0291545958431369025
0.0291545950924133913
0.0291545943392766405
0.0291545925379480264
0.0291545905144058315
0.0291545888480564085
0.0291545874581828068
0.0291545860816943767
0.0291545846344180258
0.0291545831781530353
0.0291545817696781187
0.0291545804053011531
0.0291545790585534849
0.0291546020813974426
0.0291545988415290967
0.0291545957140533982
0.0291545944614985848
0.0291545935818767095
0.0291545920851447211
0.0291545902887958147
0.0291545886955576414
0.029154587335349761
0.0291545859996610417
0.029154584596047653
0.0291545831742352733
0.0291545817938576972
0.0291545804595295388
0.0291545791494261554
0.0291546017891559581
0.0291545993274275987
0.0291545962392274934
0.0291545944731744326
0.0291545934792482482
0.0291545921705228354
0.0291545904906705677
0.0291545888822565026
0.0291545874865368169
0.0291545861513904173
0.0291545847661800056
0.0291545833572164868
0.0291545819821961011
0.0291545806539686425
0.0291545793609724914
0.0291545982402412231
0.029154596930378026
0.0291545950606623902
0.0291545937230314849
0.0291545927918915003
0.0291545916341573765
0.0291545901509925459
0.0291545886582473164
0.0291545873139182274
0.0291545860269975254
0.0291545846978175753
0.0291545833368162116
0.0291545819972237226
0.0291545807002044945
0.0291545794408810989
0.0291545979142614313
0.0291545970894092239
0.0291545954811466348
0.0291545939552800767
0.0291545927950054157
0.0291545916309952635
0.0291545902491379058
0.0291545887999448
0.029154587437478844
0.0291545861362580219
0.0291545848175673444
0.0291545834731671734
0.0291545821429594586
0.0291545808510212182
0.0291545795972910464
0.0291545962215252336
0.0291545955410967318
0.0291545943368969503
0.0291545931710695816
0.0291545921993480069
0.0291545911754000422
0.0291545899401991354
0.0291545885967727479
0.0291545872875220886
0.0291545860240215726
0.0291545847493247731
0.0291545834467635823
0.0291545821460815514
0.0291545808734882776
0.0291545796331477911
0.0291545960040701276
0.0291545956076410089
0.0291545946513900416
0.0291545934720003862
0.0291545923527865777
0.0291545912469959971
0.0291545900239151209
0.0291545887044442516
0.0291545873893427517
0.0291545861099345681
0.0291545848321058711
0.0291545835359059563
0.0291545822394930106
0.0291545809666638248
0.029154579724674428
0.0291545951925205535
0.0291545947504331243
0.0291545938591649331
0.0291545928359197709
0.0291545918670257399
0.0291545908818173771
0.0291545897662022803
0.0291545885289779087
0.0291545872638626045
0.0291545860159653503
0.0291545847685195439
0.0291545835025018574
0.0291545822289612303
0.0291545809701304615
0.029154579736192579
0.0291545951653482197
0.0291545948838354656
0.029154594164497883
0.0291545931711861411
0.0291545921178691866
0.0291545910470700984
0.0291545898908707191
0.0291545886429660957
0.0291545873608842002
0.0291545860933215759
0.0291545848331070771
0.0291545835619766505
0.0291545822848550927
0.0291545810211022161
0.0291545797824155246
0.0291545948665091273
0.02915459451335067
0.0291545937328734697
0.0291545927580580365
0.0291545917833225914
0.0291545908015464691
0.0291545897161126846
0.0291545885160960638
0.0291545872671101526
0.0291545860259614965
0.0291545847864365104
0.0291545835326035424
0.0291545822683177275
0.0291545810129165417
0.0291545797792461606
0.0291545948531649994
0.0291545945028872273
0.0291545937251661003
0.0291545927510757329
0.0291545917774986944
0.0291545907910516523
0.02915458970475222
0.0291545885039070848
0.0291545872573748081
0.0291545860127059991
0.0291545847731184832
0.0291545835191031992
0.0291545822544549624
0.0291545809992777294
0.0291545797665853854
0.0291545951610407764
0.0291545948792686013
0.029154594158931544
0.0291545931650499281
0.0291545921118650589
0.0291545910393755103
0.0291545898850908806
0.0291545886342234016
0.0291545873524217264
0.029154586083690065
0.0291545848232529457
0.0291545835521055396
0.0291545822751050829
0.0291545810117425572
0.0291545797736449154
0.0291545951916566855
0.0291545947503771274
0.0291545938601147463
0.0291545928373275025
0.0291545918684475366
0.0291545908821568382
0.0291545897630760623
0.0291545885289076247
0.0291545872645104578
0.0291545860161399224
0.0291545847682947515
0.0291545835019868006
0.0291545822282351826
0.0291545809693490657
0.0291545797355377591
0.029154596003675988
0.0291545956076521666
0.0291545946520023747
0.0291545934729199666
0.0291545923535123097
0.0291545912469594881
0.0291545900226863157
0.0291545887041703561
0.0291545873895058157
0.0291545861099488796
0.0291545848318807005
0.0291545835354794537
0.0291545822389184528
0.0291545809660268274
0.0291545797240714312
0.0291545962213958822
0.0291545955411548034
0.0291545943372650482
0.0291545931716052087
0.0291545921997129441
0.0291545911753006842
0.0291545899396248726
0.0291545885964925762
0.0291545872874454728
0.0291545860238803071
0.0291545847490298007
0.029154583446320291
0.0291545821455181237
0.0291545808728486885
0.0291545796324796692
0.029154597914227056
0.0291545970894762987
0.0291545954813785639
0.0291545939555862069
0.0291545927951802376
0.0291545916308921446
0.0291545902488054148
0.0291545887996821004
0.0291545874372855993
0.0291545861360125898
0.0291545848172076807
0.0291545834726870297
0.0291545821423712694
0.0291545808503446274
0.0291545795965454206
0.0291545982402595799
0.0291545969304429324
0.0291545950608029826
0.029154593723194646
0.0291545927919605874
0.0291545916340539071
0.0291545901507516345
0.029154588657994987
0.0291545873136658563
0.0291545860266872563
0.0291545846974092838
0.0291545833362998191
0.0291545819966017444
0.0291545806994826621
0.0291545794400640754
0.0291546017891873184
0.029154599327482808
0.0291545962393146008
0.0291545944732552048
0.0291545934792541844
0.029154592170410356
0.0291545904904578629
0.0291545888819989621
0.0291545874862428646
0.0291545861510300354
0.0291545847657260909
0.0291545833566575485
0.0291545819815284407
0.0291545806531888392
0.0291545793600755422
0.0291546020814360089
0.0291545988415754
0.029154595714106956
0.029154594461533033
0.0291545935818490649
0.0291545920850257989
0.0291545902885923178
0.0291545886952949973
0.0291545873350322823
0.0291545859992705658
0.029154584595563502
0.0291545831736446659
0.0291545817931545652
0.0291545804587069676
0.0291545791484753465
0.0291546105658353413
0.0291546008369735245
0.0291545958431753786
0.0291545950924232758
0.0291545943392281515
0.0291545925378196326
0.0291545905141993647
0.0291545888477848202
0.0291545874578475091
0.0291545860812823729
0.0291545846339124302
0.0291545831775407854
0.0291545817689476752
0.0291545804044419654
0.0291545790575533821
0.0291545780049626696
0.0291545771811169002
0.0291545762413523701
0.0291545751932712552
0.0291545741745942687
0.0291545732372785922
0.0291545723456670992
0.0291545714646202596
0.02915457059355233
0.0291545697460219091
0.029154568927449092
0.0291545681339929683
0.029154567361318072
0.0291545666085724665
0.0291545658764938327
0.0291545651650251259
0.0291545644730997443
0.0291545637995280944
0.0291545631434602139
0.0291545625042290216
0.0291545618811061315
0.0291545612732697634
0.0291545606798953791
0.0291545601002122477
0.0291545595334951647
0.0291545589790415047
0.0291545584361668983
0.0291545579042139132
0.0291545573825579274
0.0291545568706055129
0.029154556367789717
0.0291545558735655207
0.0291545553874057485
0.0291545549087953333
0.029154554437223059
0.0291545539721770643
0.0291545535132093185
0.0291545530598754515
0.0291545526116337543
0.0291545521678035317
0.0291545517286944146
0.0291545512937088913
0.0291545508623256323
0.0291545504343885195
0.0291545500096951592
0.0291545495882680541
0.0291545491698441787
0.0291545487544715987
0.0291545483425799737
0.029154547933987935
0.029154547529009419
0.0291545471266004864
0.0291545467261400196
0.0291545463270606944
0.0291545459276973534
0.0291545455264540024
0.0291545451179268285
0.0291545446921791518
0.0291545442385545972
0.0291545437762081548
0.0291545435039122051
0.0291545434522245059
0.0291545433994168796
0.0291545432644228705
0.0291545430065109079
0.0291545424268392153
0.0291545417361243515
0.0291545412047360675
0.0291545407410651221
0.0291545403172407715
0.0291545399297488683
0.0291545395671546602
0.0291545392153745586
0.0291545388528201659
0.029154538479423394
0.029154578085613822
0.0291545772339374815
0.0291545763031623995
0.0291545752773100936
0.0291545742704352011
0.0291545733352484744
0.0291545724453454273
0.0291545715675570714
0.0291545706986495005
0.0291545698508986519
0.0291545690307035733
0.0291545682353383205
0.0291545674605458126
0.0291545667051501499
0.0291545659698768979
0.0291545652549260563
0.0291545645594239941
0.0291545638822113817
0.0291545632224263253
0.0291545625794373126
0.0291545619525806522
0.0291545613410815821
0.0291545607441352182
0.0291545601609815019
0.0291545595909098419
0.0291545590332337283
0.0291545584872802618
0.0291545579523979428
0.029154557427965487
0.0291545569133926652
0.0291545564081155638
0.0291545559115915544
0.0291545554232950435
0.0291545549427124351
0.029154554469336718
0.0291545540026703284
0.0291545535422528916
0.0291545530876007528
0.0291545526380530447
0.0291545521932963132
0.0291545517530191721
0.0291545513171712865
0.0291545508851174806
0.0291545504567909258
0.0291545500318056046
0.0291545496101668598
0.0291545491919453087
0.0291545487761802127
0.0291545483647482721
0.0291545479579880563
0.0291545475563416076
0.0291545471580382833
0.0291545467651406591
0.029154546379422594
0.0291545460004561628
0.0291545456356320787
0.0291545452858446123
0.0291545449431893713
0.0291545445893138175
0.0291545442063498514
0.0291545438185078221
0.0291545433053370003
0.0291545428997454087
0.0291545426797980532
0.0291545423627832707
0.0291545421468702576
0.0291545419084842557
0.0291545413604859076
0.0291545408379989823
0.0291545404370853745
0.0291545400803943228
0.0291545397541017569
0.0291545394063207411
0.0291545389497220656
0.0291545384520926626
0.0291545782494107598
0.0291545773313660016
0.0291545764083281506
0.0291545754144421562
0.0291545744175440158
0.0291545734741813015
0.0291545725764949491
0.0291545716962082722
0.0291545708253988511
0.0291545699734222126
0.0291545691477515453
0.0291545683472298235
0.0291545675677310906
0.0291545668075532324
0.0291545660672556314
0.0291545653472447576
0.0291545646468161085
0.0291545639648039152
0.0291545633002922057
0.0291545626526569721
0.0291545620212836677
0.0291545614054304139
0.0291545608042972394
0.0291545602171220455
0.029154559643198491
0.0291545590818466129
0.0291545585323947642
0.0291545579941860332
0.0291545574665903126
0.0291545569490068643
0.0291545564408593645
0.0291545559415904119
0.0291545554506582802
0.0291545549675348917
0.0291545544917041176
0.0291545540226628985
0.0291545535599256125
0.0291545531030093612
0.0291545526514266108
0.0291545522048361448
0.0291545517629351499
0.0291545513254930881
0.0291545508921097173
0.0291545504625337418
0.0291545500365634862
0.0291545496141750841
0.0291545491946201066
0.0291545487784836722
0.0291545483662662072
0.0291545479576646692
0.0291545475518423317
0.0291545471471397859
0.0291545467427664698
0.0291545463362539274
0.0291545459203796965
0.0291545454906404836
0.0291545450364900302
0.0291545445350112654
0.0291545439609156853
0.029154543349327891
0.0291545428605192586
0.0291545429524708369
0.0291545432165291572
0.0291545432830105158
0.029154543253303862
0.0291545427673716613
0.0291545418273479705
0.0291545411411632122
0.0291545407121620095
0.0291545403077353577
0.0291545398743916183
0.0291545394654250181
0.0291545390833603535
0.0291545387279548533
0.0291545384191861448
0.0291545782998325308
0.0291545773538086431
0.0291545764640343506
0.0291545755167050349
0.0291545745386232943
0.0291545735943081023
0.0291545726972261415
0.0291545718242149608
0.0291545709609226378
0.0291545701124833606
0.0291545692874897594
0.0291545684870185111
0.0291545677073988437
0.0291545669462840371
0.0291545662039313022
0.0291545654810314511
0.0291545647772370707
0.0291545640915110635
0.02915456342294101
0.029154562770946104
0.0291545621350121874
0.0291545615144908413
0.0291545609086370366
0.0291545603167226927
0.029154559738076305
0.0291545591720549432
0.0291545586180178354
0.0291545580753296216
0.0291545575433756927
0.0291545570215685362
0.0291545565093439159
0.0291545560061551579
0.0291545555114707047
0.0291545550247734805
0.0291545545455602698
0.0291545540733418457
0.0291545536076449792
0.0291545531480124978
0.0291545526940071992
0.0291545522452446339
0.0291545518013844145
0.029154551362132658
0.0291545509272099178
0.0291545504963607489
0.0291545500694532951
0.0291545496463542012
0.0291545492269170842
0.0291545488114937877
0.0291545484002975024
0.0291545479934883639
0.0291545475910497953
0.029154547193257524
0.0291545468010703697
0.0291545464154485019
0.0291545460382722534
0.0291545456746072455
0.0291545453296163382
0.029154545005453926
0.0291545446991452843
0.029154544381999048
0.0291545439848866841
0.0291545434380667719
0.0291545429798584568
0.0291545425365975254
0.0291545421525319023
0.0291545418856355779
0.0291545416274197298
0.0291545412667950504
0.0291545409039097592
0.0291545405452714214
0.0291545401966305795
0.0291545398590825622
0.0291545394830281385
0.0291545390263692888
0.0291545385591443114
0.0291545784386409573
0.0291545774673231464
0.0291545765815202466
0.0291545756493902415
0.0291545746731497364
0.0291545737200552407
0.029154572817128712
0.0291545719442807688
0.0291545710815061081
0.029154570230286711
0.029154569400483752
0.0291545685954479918
0.0291545678119618616
0.0291545670469539296
0.0291545663002814627
0.0291545655728603463
0.0291545648646652743
0.0291545641747199755
0.0291545635020162008
0.0291545628459264801
0.0291545622059753567
0.0291545615815621932
0.0291545609719529031
0.029154560376409705
0.0291545597942578019
0.0291545592248608834
0.0291545586675835029
0.0291545581217884896
0.0291545575868547673
0.0291545570621879573
0.0291545565472171725
0.0291545560413885123
0.029154555544162495
0.0291545550550151127
0.0291545545734391218
0.0291545540989451187
0.0291545536310638294
0.0291545531693496764
0.0291545527133863086
0.0291545522627993832
0.0291545518172662589
0.0291545513765140707
0.0291545509402996346
0.0291545505083929089
0.0291545500806301497
0.0291545496568708026
0.0291545492370870636
0.0291545488213589866
0.0291545484097454136
0.0291545480021870376
0.0291545475982769968
0.0291545471970552986
0.0291545467963767804
0.0291545463920592496
0.0291545459773825538
0.0291545455430016545
0.029154545077235295
0.0291545445691136114
0.0291545440246998785
0.029154543510816755
0.0291545431634069319
0.0291545430890848278
0.0291545430819555446
0.0291545430659057164
0.0291545429100874727
0.0291545424892020698
0.0291545418848788741
0.0291545413286619856
0.0291545408502188637
0.029154540393269035
0.0291545399446770798
0.0291545395152764571
0.0291545391242936762
0.0291545387957329247
0.0291545385369209806
0.0291545784672768912
0.0291545774921791005
0.0291545766178377651
0.0291545757051498641
0.0291545747428563658
0.0291545737957054837
0.0291545728969390787
0.0291545720299628656
0.0291545711728352225
0.0291545703248357324
0.0291545694963670256
0.0291545686922830699
0.02915456790975526
0.029154567145186272
0.029154566398105982
0.0291545656696341367
0.0291545649600242658
0.0291545642683653274
0.0291545635935949524
0.0291545629350865483
0.029154562292447242
0.0291545616651663932
0.0291545610525616138
0.0291545604539224824
0.0291545598686034357
0.0291545592960036244
0.0291545587355193925
0.0291545581865358915
0.0291545576484480568
0.0291545571206757517
0.0291545566026621857
0.0291545560938667563
0.0291545555937626107
0.029154555101838852
0.0291545546176032282
0.0291545541405832907
0.0291545536703278797
0.029154553206410163
0.0291545527484325696
0.0291545522960344472
0.0291545518488998505
0.0291545514067575173
0.0291545509693694818
0.0291545505365235838
0.0291545501080553264
0.0291545496838651677
0.0291545492639603346
0.0291545488484542849
0.0291545484375647264
0.0291545480315434542
0.0291545476305748313
0.029154547234663257
0.0291545468435772531
0.0291545464571049545
0.0291545460759580176
0.0291545457035575287
0.0291545453472122663
0.0291545450138875166
0.0291545446963366942
0.0291545443803562405
0.029154544016584686
0.0291545435699496133
0.0291545431173806414
0.0291545426488993738
0.0291545421747659121
0.0291545418107266099
0.0291545415182352732
0.0291545412010561673
0.0291545408547103195
0.0291545405222409099
0.029154540205803485
0.0291545398754879462
0.0291545395165387078
0.0291545391249826112
0.0291545387223966779
0.02915457855718891
0.0291545775759580426
0.0291545767001815462
0.0291545757917263636
0.0291545748319741241
0.0291545738821941854
0.0291545729791089538
0.0291545721096531305
0.0291545712513206629
0.0291545704014883368
0.0291545695701792701
0.0291545687630535288
0.0291545679777426708
0.0291545672104267621
0.0291545664603638337
0.0291545657287212365
0.0291545650159518305
0.029154564321238613
0.0291545636434924933
0.0291545629820653719
0.0291545623365937548
0.0291545617066033616
0.0291545610914204431
0.0291545604903231878
0.0291545599026563525
0.0291545593278175266
0.029154558765202624
0.0291545582141920258
0.0291545576741727604
0.0291545571445573984
0.0291545566247837021
0.0291545561143064756
0.0291545556125943628
0.0291545551191325185
0.0291545546334262967
0.0291545541550025933
0.0291545536834110358
0.0291545532182266309
0.0291545527590553397
0.0291545523055420364
0.0291545518573793593
0.0291545514143109093
0.0291545509761195684
0.0291545505426122099
0.0291545501136264186
0.0291545496890577363
0.0291545492688960357
0.0291545488532551043
0.0291545484423908589
0.0291545480366500916
0.0291545476363054348
0.0291545472411530969
0.0291545468496446358
0.0291545464573459319
0.0291545460552894847
0.0291545456308090652
0.0291545451743842922
0.029154544685424947
0.0291545441408830736
0.0291545436423587094
0.0291545432913624912
0.0291545431031094218
0.0291545429809616889
0.0291545428298277121
0.0291545426553912121
0.0291545423427724652
0.029154541889462697
0.0291545414086678521
0.0291545409597618078
0.0291545405305013716
0.0291545400757444347
0.0291545396239660214
0.0291545392246445739
0.0291545388950509507
0.029154538630960989
0.0291545785685242836
0.0291545775892438422
0.0291545767186062212
0.0291545758178573429
0.0291545748650452914
0.0291545739193154047
0.0291545730188171558
0.0291545721526558187
0.0291545712982459598
0.0291545704514912483
0.0291545696218778148
0.0291545688157139535
0.0291545680312302324
0.0291545672645714821
0.0291545665147496004
0.029154565782917044
0.0291545650696928144
0.0291545643743672776
0.029154563695852443
0.0291545630334692218
0.0291545623868540299
0.0291545617555638396
0.0291545611389531431
0.0291545605363157517
0.0291545599470123436
0.0291545593704633024
0.0291545588060884223
0.0291545582532868053
0.0291545577114593404
0.0291545571800306616
0.0291545566584509724
0.0291545561461875082
0.0291545556427203617
0.0291545551475457417
0.0291545546601806559
0.0291545541801646116
0.0291545537070597681
0.0291545532404523487
0.0291545527799573594
0.0291545523252268318
0.029154551875962189
0.0291545514319268423
0.0291545509929287613
0.029154550558786671
0.0291545501293260165
0.0291545497044092272
0.0291545492839901284
0.0291545488681894185
0.0291545484573801118
0.0291545480522517296
0.0291545476538159661
0.02915454726325006
0.0291545468813434773
0.029154546507233519
0.0291545461366852394
0.0291545457629493361
0.0291545453923272614
0.0291545450782633823
0.0291545446202935606
0.0291545442191097869
0.0291545438846820062
0.0291545435319022599
0.0291545431551343236
0.0291545427894559575
0.0291545423274414996
0.0291545418823717373
0.0291545415257103875
0.0291545411995098279
0.0291545408632610768
0.0291545405174391155
0.0291545401693205017
0.0291545398355920159
0.0291545394939863589
0.0291545391391759556
0.029154538785213558
0.0291545786138771683
0.0291545776323128038
0.029154576760110136
0.0291545758595385431
0.0291545749071547081
0.029154573960369537
0.0291545730578919061
0.0291545721900142024
0.029154571334271559
0.0291545704858625111
0.0291545696540589719
0.0291545688456348387
0.029154568059192993
0.0291545672907884967
0.0291545665392000525
0.0291545658055345457
0.02915456509051291
0.0291545643934885169
0.0291545637133445203
0.0291545630493657178
0.0291545624011946558
0.0291545617684256207
0.029154561150437016
0.0291545605465226287
0.0291545599560363126
0.0291545593783948849
0.0291545588130148053
0.0291545582592880152
0.029154557716605356
0.029154557184381126
0.0291545566620582605
0.0291545561490992866
0.0291545556449797766
0.0291545551491916854
0.0291545546612493149
0.0291545541806908365
0.0291545537070769245
0.0291545532399904786
0.0291545527790394235
0.029154552323863818
0.0291545518741548049
0.0291545514297026909
0.0291545509903602396
0.0291545505559686682
0.0291545501263367826
0.0291545497012604647
0.0291545492805890261
0.0291545488643462462
0.0291545484528886699
0.0291545480470859764
0.0291545476485047493
0.0291545472594562198
0.0291545468823299139
0.0291545465164502193
0.0291545461492690901
0.0291545457396517951
0.0291545452288895258
0.029154544633286681
0.0291545440461975121
0.0291545435497874705
0.0291545432327684172
0.0291545430266787198
0.0291545428940664549
0.0291545428088048134
0.0291545425644538156
0.0291545422703979804
0.0291545418831649396
0.0291545414458616661
0.0291545410279630685
0.0291545406203852532
0.0291545401817290654
0.0291545396999446996
0.0291545392598380193
0.0291545389135705116
0.029154538653145854
0.0291545786118713735
0.0291545776320551592
0.0291545767622446925
0.0291545758639489977
0.029154574913354582
0.0291545739677615927
0.0291545730661384797
0.0291545721992488675
0.0291545713448454757
0.0291545704977423381
0.02915456966698423
0.0291545688594421655
0.0291545680738219647
0.0291545673061202569
0.029154566555027208
0.0291545658216643341
0.0291545651068285984
0.0291545644099135241
0.029154563729793935
0.0291545630657529045
0.0291545624174712643
0.0291545617845549165
0.0291545611663620169
0.0291545605621653797
0.0291545599713127941
0.029154559393226899
0.0291545588273335633
0.0291545582730338322
0.0291545577297273144
0.0291545571968334326
0.0291545566738052216
0.0291545561601174487
0.0291545556552552515
0.0291545551587195501
0.029154554670034534
0.0291545541887485715
0.029154553714431649
0.029154553246673022
0.029154552785079231
0.0291545523292705798
0.0291545518788853195
0.0291545514337600287
0.0291545509938257487
0.0291545505589796972
0.0291545501290430067
0.0291545497037288409
0.0291545492827041987
0.0291545488657604691
0.0291545484530551964
0.0291545480454383499
0.0291545476449503287
0.029154547255617537
0.0291545468847724913
0.0291545465444958407
0.0291545462479078539
0.0291545459535855513
0.0291545454608865343
0.0291545454077488317
0.0291545462107003529
0.0291545464186622333
0.0291545458784264119
0.0291545451057039044
0.0291545442121140461
0.0291545432053130112
0.0291545425587601791
0.0291545420580308252
0.029154541579386923
0.0291545412061057635
0.0291545409004041155
0.029154540610048487
0.0291545403811831576
0.0291545401805841931
0.0291545398941677608
0.0291545394545242136
0.0291545388780730386
0.0291545785995685446
0.0291545776199265728
0.0291545767499283362
0.0291545758522390938
0.0291545749022953625
0.0291545739571185507
0.0291545730559104495
0.0291545721898432177
0.0291545713362208192
0.0291545704898127332
0.0291545696596911715
0.0291545688527217912
0.0291545680676143296
0.0291545673003755328
0.0291545665497034388
0.0291545658167245633
0.0291545651022387803
0.0291545644056416739
0.0291545637258093376
0.0291545630620234364
0.0291545624139591605
0.0291545617812343991
0.0291545611632129456
0.0291545605591673196
0.0291545599684435233
0.0291545593904628843
0.029154558824650751
0.0291545582704087619
0.0291545577271403074
0.0291545571942817584
0.0291545566712914164
0.0291545561576375852
0.0291545556528016794
0.0291545551562840989
0.0291545546676075899
0.0291545541863153651
0.029154553711965514
0.0291545532441227495
0.0291545527823471769
0.0291545523261728251
0.0291545518750295427
0.0291545514278946337
0.0291545509835505097
0.0291545505410646388
0.029154550100116642
0.0291545496609318701
0.029154549223746818
0.0291545487879972601
0.029154548351404741
0.0291545479090239978
0.0291545474525015495
0.0291545469699921594
0.0291545464475680451
0.0291545458755602151
0.0291545452719522008
0.0291545447662422859
0.029154544735199614
0.0291545445406810218
0.0291545440148392836
0.029154543747688548
0.0291545434945501281
0.0291545432069052028
0.0291545429344009129
0.0291545426042720893
0.0291545424364902696
0.0291545422316907207
0.0291545419607569696
0.0291545415542657609
0.0291545410570222818
0.0291545405676183304
0.0291545401223725215
0.0291545397245150245
0.0291545393522657202
0.029154539018730271
0.0291545386950362931
0.029154578605297167
0.0291545776238744531
0.0291545767517919947
0.0291545758516405414
0.0291545748996256682
0.0291545739531518938
0.0291545730508899689
0.0291545721832799434
0.029154571327796891
0.02915457047963875
0.0291545696480879878
0.029154568839906983
0.0291545680536898603
0.0291545672854894786
0.029154566534083784
0.029154565800578694
0.0291545650856941778
0.029154564388782913
0.0291545637087275607
0.0291545630448137097
0.0291545623966879899
0.0291545617639349351
0.0291545611459315887
0.0291545605419740381
0.0291545599514169106
0.0291545593736764752
0.0291545588081689212
0.029154558254286915
0.0291545577114234976
0.0291545571789968566
0.0291545566564490009
0.0291545561432388807
0.029154555638843449
0.0291545551427618253
0.0291545546545189764
0.0291545541736671979
0.0291545536997855487
0.0291545532324779151
0.0291545527713706239
0.0291545523161106448
0.0291545518663855023
0.0291545514220090708
0.0291545509828984896
0.029154550548978319
0.02915455011998749
0.0291545496954491654
0.0291545492748216915
0.0291545488577319468
0.0291545484442655746
0.0291545480353381757
0.0291545476332586914
0.0291545472425119821
0.0291545468714102807
0.0291545465355797229
0.0291545462616694361
0.0291545461050181087
0.0291545461011781214
0.0291545456968462617
0.0291545446940975374
0.0291545439593199444
0.0291545436085785294
0.0291545433052219152
0.0291545430625270371
0.0291545429144156251
0.0291545425226995697
0.0291545420847580429
0.0291545417069099949
0.0291545413648353312
0.0291545410150695732
0.0291545406381860071
0.0291545402247708058
0.0291545398008722333
0.0291545393881978837
0.0291545390069416592
0.0291545387021510984
0.0291545785680740466
0.0291545775887265511
0.0291545767179418533
0.0291545758171194956
0.0291545748643616681
0.0291545739186508043
0.0291545730182031088
0.0291545721520834744
0.0291545712976368186
0.0291545704507867529
0.0291545696210557502
0.0291545688147634603
0.0291545680301388312
0.02915456726332415
0.0291545665133303399
0.0291545657813092225
0.0291545650678784393
0.0291545643723265628
0.0291545636935639715
0.0291545630309097865
0.0291545623839986265
0.0291545617523826968
0.0291545611354130443
0.0291545605323825681
0.0291545599426512522
0.0291545593656380234
0.0291545588007611906
0.0291545582474191239
0.0291545577050128478
0.0291545571729675754
0.0291545566507328408
0.0291545561377753483
0.0291545556335784384
0.0291545551376471389
0.0291545546495120197
0.0291545541687284852
0.0291545536948710493
0.0291545532275258035
0.029154552766289029
0.0291545523107812968
0.0291545518606773427
0.0291545514157360436
0.0291545509758209566
0.0291545505409287475
0.0291545501110611824
0.0291545496861602624
0.0291545492661730507
0.0291545488512092825
0.0291545484417029509
0.0291545480383843363
0.0291545476426717555
0.0291545472571413666
0.0291545468854170417
0.0291545465299874636
0.029154546183847066
0.029154545795239243
0.0291545452149108153
0.0291545447660945777
0.0291545444924870244
0.0291545441387882007
0.0291545438166183821
0.0291545435139505989
0.0291545431626580795
0.029154542824704404
0.0291545424702659497
0.0291545421131685321
0.0291545417372933539
0.0291545413112365877
0.0291545408882285355
0.0291545405149690635
0.029154540163205709
0.0291545398076202243
0.0291545394785581967
0.0291545391508698168
0.029154538802405254
0.0291545785566379133
0.0291545775753640386
0.029154576699490297
0.0291545757909626967
0.0291545748311973739
0.029154573881397923
0.0291545729782902857
0.0291545721087911013
0.0291545712503646359
0.0291545704003936361
0.029154569568919847
0.0291545687616101765
0.0291545679760939168
0.0291545672085482439
0.0291545664582300822
0.0291545657263058665
0.0291545650132264966
0.0291545643181723782
0.0291545636400515583
0.0291545629782134635
0.0291545623322917169
0.0291545617018080308
0.0291545610860848223
0.0291545604843976465
0.0291545598960890225
0.0291545593205541423
0.0291545587571865744
0.0291545582053648784
0.0291545576644751323
0.0291545571339294624
0.0291545566131656865
0.0291545561016404858
0.0291545555988292765
0.0291545551042330618
0.0291545546173872031
0.0291545541378682126
0.0291545536652954469
0.0291545531993253719
0.0291545527396431213
0.0291545522859586841
0.0291545518380006731
0.0291545513955198329
0.029154550958217923
0.0291545505256502573
0.0291545500973647738
0.0291545496730651714
0.0291545492526919699
0.0291545488365213441
0.0291545484251977821
0.0291545480198710273
0.0291545476219697251
0.0291545472328258691
0.0291545468527292309
0.0291545464783370852
0.0291545460976306604
0.0291545456846624765
0.0291545452149769464
0.0291545447813429739
0.0291545444052534811
0.0291545440064779164
0.0291545435999923629
0.0291545432152283054
0.0291545428592796772