/*--------------------------------*- C++ -*----------------------------------*\
  =========                 |
  \\      /  F ield         | OpenFOAM: The Open Source CFD Toolbox
   \\    /   O peration     | Website:  https://openfoam.org
    \\  /    A nd           | Version:  8
     \\/     M anipulation  |
\*---------------------------------------------------------------------------*/
FoamFile
{
    version     2.0;
    format      ascii;
    class       volScalarField;
    location    "0.4";
    object      gas::mu;
}
// * * * * * * * * * * * * * * * * * * * * * * * * * * * * * * * * * * * * * //

dimensions      [1 -1 -1 0 0 0 0];

internalField   nonuniform List<scalar> 
1800
(
3.89398395867285107e-05
3.89398395867285039e-05
3.89398395867285107e-05
3.89398395867285039e-05
3.89398395867285039e-05
3.89398395867285039e-05
3.89398395867285039e-05
3.89398395867285107e-05
3.89398395867285107e-05
3.89398395867285039e-05
3.89398395867284971e-05
3.89398395867284971e-05
3.89398395867285039e-05
3.89398395867285107e-05
3.89398395867285107e-05
3.89398395867285107e-05
3.89398395867285107e-05
3.89398395867285107e-05
3.89398395867285107e-05
3.89398395867285039e-05
3.89398395867285039e-05
3.89398395867285039e-05
3.89398395867285039e-05
3.89398395867285175e-05
3.89398395867285039e-05
3.89398395867285039e-05
3.89398395867285039e-05
3.89398395867285107e-05
3.89398395867285039e-05
3.89398395867285107e-05
3.89398395867285107e-05
3.89398395867285107e-05
3.89398395867285039e-05
3.89398395867285039e-05
3.89398395867285107e-05
3.89398395867285039e-05
3.89398395867285039e-05
3.89398395867285175e-05
3.89398395867285107e-05
3.89398395867285039e-05
3.89398395867285107e-05
3.89398395867285107e-05
3.89398395867285039e-05
3.89398395867285107e-05
3.89398395867285039e-05
3.89398395867285107e-05
3.89398395867285107e-05
3.89398395867285039e-05
3.89398395867285039e-05
3.89398395867285107e-05
3.89398395867285039e-05
3.89398395867285039e-05
3.89398395867285107e-05
3.89398395867285039e-05
3.89398395867285039e-05
3.89398395867285039e-05
3.89398395867285107e-05
3.89398395867285107e-05
3.89398395867285107e-05
3.89398395867285039e-05
3.89398395867285107e-05
3.89398395867285107e-05
3.89398395867285039e-05
3.89398395867285039e-05
3.89398395867285107e-05
3.89398395867285039e-05
3.89398395867285107e-05
3.89398395867285107e-05
3.89398395867285039e-05
3.89398395867285107e-05
3.89398395867285039e-05
3.89398395867285107e-05
3.89398395867285039e-05
3.89398395867285039e-05
3.89398395867285039e-05
3.89398395867285107e-05
3.89398395867285039e-05
3.89398395867285107e-05
3.89398395867285107e-05
3.89398395867285107e-05
3.89398395867285107e-05
3.89398395867285039e-05
3.89398395867285107e-05
3.89398395867285107e-05
3.89398395867285107e-05
3.89398395867285039e-05
3.89398395867285107e-05
3.89398395867285107e-05
3.89398395867285107e-05
3.89398395867285107e-05
3.89398395867285107e-05
3.89398395867285107e-05
3.89398395867285107e-05
3.89398395867285039e-05
3.89398395867285107e-05
3.89398395867285107e-05
3.89398395867285107e-05
3.89398395867285107e-05
3.89398395867285039e-05
3.89398395867285107e-05
3.89398395867285107e-05
3.89398395867285107e-05
3.89398395867285107e-05
3.89398395867285175e-05
3.89398395867285175e-05
3.89398395867285107e-05
3.89398395867285107e-05
3.89398395867285039e-05
3.89398395867285107e-05
3.89398395867285107e-05
3.89398395867285039e-05
3.89398395867285107e-05
3.89398395867285107e-05
3.89398395867285107e-05
3.89398395867285039e-05
3.89398395867285107e-05
3.89398395867285107e-05
3.89398395867285107e-05
3.89398395867285039e-05
3.89398395867285107e-05
3.89398395867285107e-05
3.89398395867285175e-05
3.89398395867285107e-05
3.89398395867285107e-05
3.89398395867285039e-05
3.89398395867285107e-05
3.89398395867285039e-05
3.89398395867285039e-05
3.89398395867285107e-05
3.89398395867285107e-05
3.89398395867285107e-05
3.89398395867285107e-05
3.89398395867285039e-05
3.89398395867285107e-05
3.89398395867285039e-05
3.89398395867285107e-05
3.89398395867285107e-05
3.89398395867285107e-05
3.89398395867285039e-05
3.89398395867285107e-05
3.89398395867285107e-05
3.89398395867285039e-05
3.89398395867285039e-05
3.89398395867285039e-05
3.89398395867285107e-05
3.89398395867285039e-05
3.89398395867285039e-05
3.89398395867285039e-05
3.89398395867285039e-05
3.89398395867285107e-05
3.89398395867285039e-05
3.89398395867285107e-05
3.89398395867285107e-05
3.89398395867285039e-05
3.89398395867285107e-05
3.89398395867285039e-05
3.89398395867285039e-05
3.89398395867285107e-05
3.89398395867285175e-05
3.89398395867285175e-05
3.89398395867285175e-05
3.89398395867285175e-05
3.89398395867285107e-05
3.89398395867285107e-05
3.89398395867285107e-05
3.89398395867285039e-05
3.89398395867285107e-05
3.89398395867285039e-05
3.89398395867285107e-05
3.89398395867285107e-05
3.89398395867285107e-05
3.89398395867285039e-05
3.89398395867285107e-05
3.89398395867285107e-05
3.89398395867285175e-05
3.89398395867285107e-05
3.89398395867285039e-05
3.89398395867285039e-05
3.89398395867285107e-05
3.89398395867285107e-05
3.89398395867285039e-05
3.89398395867285107e-05
3.89398395867285107e-05
3.89398395867285039e-05
3.89398395867285107e-05
3.89398395867285107e-05
3.89398395867285039e-05
3.89398395867285107e-05
3.89398395867285107e-05
3.89398395867285107e-05
3.89398395867285039e-05
3.89398395867285107e-05
3.89398395867285107e-05
3.89398395867285175e-05
3.89398395867285175e-05
3.89398395867285039e-05
3.89398395867285039e-05
3.89398395867285107e-05
3.89398395867285039e-05
3.89398395867285107e-05
3.89398395867285039e-05
3.89398395867285039e-05
3.89398395867285039e-05
3.89398395867285107e-05
3.89398395867285107e-05
3.89398395867285175e-05
3.89398395867285175e-05
3.89398395867285175e-05
3.89398395867285175e-05
3.89398395867285039e-05
3.89398395867285107e-05
3.89398395867285039e-05
3.89398395867285039e-05
3.89398395867285039e-05
3.89398395867285107e-05
3.89398395867285039e-05
3.89398395867285107e-05
3.89398395867285039e-05
3.89398395867285039e-05
3.89398395867285039e-05
3.89398395867285039e-05
3.89398395867285107e-05
3.89398395867285107e-05
3.89398395867285107e-05
3.89398395867285175e-05
3.89398395867285107e-05
3.89398395867285039e-05
3.89398395867285107e-05
3.89398395867285107e-05
3.89398395867285039e-05
3.89398395867285107e-05
3.89398395867285039e-05
3.89398395867285039e-05
3.89398395867285039e-05
3.89398395867285107e-05
3.89398395867285039e-05
3.89398395867285039e-05
3.89398395867285107e-05
3.89398395867285039e-05
3.89398395867285107e-05
3.89398395867285039e-05
3.89398395867285039e-05
3.89398395867285039e-05
3.89398395867285039e-05
3.89398395867285107e-05
3.89398395867285039e-05
3.89398395867285039e-05
3.89398395867285107e-05
3.89398395867285039e-05
3.89398395867285039e-05
3.89398395867285107e-05
3.89398395867285039e-05
3.89398395867285039e-05
3.89398395867285107e-05
3.89398395867285039e-05
3.89398395867285107e-05
3.89398395867284971e-05
3.89398395867285039e-05
3.89398395867285039e-05
3.89398395867285107e-05
3.89398395867285107e-05
3.89398395867285039e-05
3.89398395867285039e-05
3.89398395867285107e-05
3.89398395867285107e-05
3.89398395867285039e-05
3.89398395867285107e-05
3.89398395867285039e-05
3.89398395867285039e-05
3.89398395867285175e-05
3.89398395867285039e-05
3.89398395867285107e-05
3.89398395867285039e-05
3.89398395867285107e-05
3.89398395867285039e-05
3.89398395867285039e-05
3.89398395867285107e-05
3.89398395867285039e-05
3.89398395867285039e-05
3.89398395867285039e-05
3.89398395867285107e-05
3.89398395867285175e-05
3.89398395867285107e-05
3.89398395867285107e-05
3.89398395867286936e-05
3.89398395867285107e-05
3.89398395867285039e-05
3.89398395867285039e-05
3.89398395867285107e-05
3.89398395867285107e-05
3.89398395867285039e-05
3.89398395867285107e-05
3.89398395867285107e-05
3.89398395867285107e-05
3.89398395867285107e-05
3.89398395867285039e-05
3.89398395867285107e-05
3.89398395867285039e-05
3.89398395867285581e-05
3.89398395867317565e-05
3.89398395867285039e-05
3.89398395867285039e-05
3.89398395867285039e-05
3.89398395867285039e-05
3.89398395867285107e-05
3.89398395867285175e-05
3.89398395867285581e-05
3.8939839586728714e-05
3.89398395867296355e-05
3.89398395867343179e-05
3.89398395867566254e-05
3.89398395868564872e-05
3.89398395872749147e-05
3.89398395889112943e-05
3.89398395948651431e-05
3.89398396149556465e-05
3.89398396776202213e-05
3.89398398576615263e-05
3.89398403322893164e-05
3.8939841474854329e-05
3.89398439676178116e-05
3.89398489718290701e-05
3.89398588276093922e-05
3.89398778439755108e-05
3.89399137657920507e-05
3.8939980217009023e-05
3.89401006268232631e-05
3.89403143589606051e-05
3.8940685990461826e-05
3.89413188948995942e-05
3.89423744087825767e-05
3.89440977941098854e-05
3.89468518111763594e-05
3.89511578371961331e-05
3.89577433133436358e-05
3.89675937954743332e-05
3.89819934737480224e-05
3.90021293378625333e-05
3.90279638963839177e-05
3.90601517619085706e-05
3.9099170327871876e-05
3.91428189078671753e-05
3.91950229366953083e-05
3.92517322840889042e-05
3.93143910261931111e-05
3.93793242809194967e-05
3.94473879446515316e-05
3.95146536189920075e-05
3.95807971518342784e-05
3.96439929661556901e-05
3.9704226659384029e-05
3.97603910531839062e-05
3.98130941145835579e-05
3.98607146659808755e-05
3.99049925579368785e-05
3.99468343144953253e-05
3.99864221787444982e-05
4.00231337603065821e-05
4.00582500623757694e-05
4.0091073195857476e-05
4.01241211234292227e-05
4.01626008890546997e-05
4.020563587076993e-05
4.02532787693097625e-05
4.02992416901703406e-05
4.03372147245066319e-05
4.03754905963959313e-05
4.04144765574954341e-05
4.04502503090178035e-05
4.04839219932093578e-05
4.05162954815906822e-05
4.05467820387916359e-05
4.05746240448523953e-05
4.06068568108984256e-05
4.06543805218445714e-05
3.89398395867285107e-05
3.89398395867285039e-05
3.89398395867284971e-05
3.89398395867285039e-05
3.89398395867285107e-05
3.89398395867285039e-05
3.89398395867285039e-05
3.89398395867285242e-05
3.89398395867285784e-05
3.89398395867288834e-05
3.89398395867302725e-05
3.89398395867364118e-05
3.89398395867619041e-05
3.89398395868609324e-05
3.89398395872204606e-05
3.89398395884367525e-05
3.893983959226072e-05
3.893983960340312e-05
3.89398396334073851e-05
3.89398397077943877e-05
3.89398398760650857e-05
3.89398402169236526e-05
3.89398408880470674e-05
3.89398421820515218e-05
3.89398446254794417e-05
3.89398491480562941e-05
3.89398573596933597e-05
3.89398719930312699e-05
3.89398975926632287e-05
3.89399415600948394e-05
3.89400156934542027e-05
3.89401383874683174e-05
3.89403376731104847e-05
3.89406552645229091e-05
3.89411517205933154e-05
3.89419126454080232e-05
3.89430554555653341e-05
3.89447378564367828e-05
3.89471967125703915e-05
3.89504140876877211e-05
3.89551161033303009e-05
3.89604002965103212e-05
3.8967669726831767e-05
3.89758540728887994e-05
3.89868872214819943e-05
3.89988206046362732e-05
3.90124945647912861e-05
3.90295298200539202e-05
3.90486803265912487e-05
3.90653149678628258e-05
3.9087424802069125e-05
3.91111763616706885e-05
3.913332243690364e-05
3.91547442547915357e-05
3.91834450610691219e-05
3.92111340134152005e-05
3.92322186338235629e-05
3.92583089247759877e-05
3.92926513496810419e-05
3.93215745270597753e-05
3.93440868192277863e-05
3.93730272267329707e-05
3.94029092283977448e-05
3.94294077531185129e-05
3.94535495284584805e-05
3.94844867537994001e-05
3.952151253548415e-05
3.9565191259515107e-05
3.96061877286690695e-05
3.96342983351387251e-05
3.96565338842475693e-05
3.96864192367227494e-05
3.97298019267817868e-05
3.97703716752874443e-05
3.97988811878338225e-05
3.89398395867285107e-05
3.89398395867285107e-05
3.89398395867285107e-05
3.89398395867285107e-05
3.89398395867285039e-05
3.89398395867285107e-05
3.89398395867285107e-05
3.89398395867285107e-05
3.89398395867285107e-05
3.8939839586728531e-05
3.89398395867286462e-05
3.89398395867291002e-05
3.89398395867309976e-05
3.89398395867383498e-05
3.89398395867649738e-05
3.89398395868551319e-05
3.89398395871398231e-05
3.89398395879760886e-05
3.89398395902557456e-05
3.89398395960041855e-05
3.89398396092946542e-05
3.8939839636513482e-05
3.89398396901398494e-05
3.89398397935212235e-05
3.89398399886077174e-05
3.89398403494641021e-05
3.89398410045009246e-05
3.89398421722846085e-05
3.8939844217941838e-05
3.89398477399302301e-05
3.89398537002480339e-05
3.89398636147701994e-05
3.89398798238861784e-05
3.89399058665675023e-05
3.8939946984289414e-05
3.894001079141319e-05
3.89401081914719996e-05
3.89402547862700949e-05
3.89404737581699589e-05
3.89407718650271515e-05
3.89412056484364703e-05
3.89417641191619048e-05
3.89425531582038404e-05
3.89435817923976338e-05
3.89447025778413963e-05
3.89462263125320786e-05
3.89483821178492512e-05
3.8950443065844123e-05
3.89532989910626665e-05
3.89562084842430168e-05
3.89600388801179698e-05
3.89637308795631558e-05
3.8968776841370796e-05
3.89738485645185051e-05
3.89788832272485862e-05
3.89857947266474737e-05
3.89921048702334438e-05
3.89986683601814915e-05
3.90074888475165854e-05
3.90166598383114791e-05
3.90229564817617746e-05
3.90303043431326156e-05
3.90371999114169416e-05
3.90442100576118221e-05
3.90535797834450023e-05
3.90664968839405904e-05
3.90795515913519901e-05
3.90914997788291096e-05
3.91073722225887196e-05
3.91222662477574455e-05
3.91345138682173751e-05
3.91480908181248086e-05
3.91662307278001714e-05
3.91842800126361481e-05
3.92004696544697175e-05
3.89398395867285107e-05
3.89398395867285039e-05
3.89398395867285039e-05
3.89398395867285039e-05
3.89398395867285107e-05
3.89398395867285175e-05
3.89398395867285107e-05
3.89398395867285039e-05
3.89398395867285107e-05
3.89398395867285107e-05
3.89398395867285175e-05
3.89398395867285513e-05
3.89398395867286733e-05
3.89398395867291815e-05
3.89398395867309908e-05
3.8939839586737103e-05
3.89398395867564492e-05
3.89398395868136206e-05
3.89398395869711348e-05
3.89398395873746206e-05
3.89398395883263807e-05
3.89398395902997845e-05
3.89398395941912504e-05
3.89398396016927029e-05
3.89398396158365201e-05
3.89398396419700412e-05
3.89398396893656816e-05
3.89398397738324848e-05
3.89398399218701473e-05
3.8939840177143394e-05
3.89398406103602651e-05
3.89398413340116963e-05
3.89398425238588809e-05
3.89398444495067612e-05
3.89398475168381368e-05
3.89398523254578393e-05
3.89398597445174755e-05
3.89398710097539676e-05
3.8939887838102639e-05
3.89399125055753069e-05
3.89399484468025216e-05
3.89399986354701288e-05
3.89400707383456517e-05
3.89401750639763327e-05
3.89402911474750761e-05
3.8940452292966348e-05
3.8940687163022796e-05
3.89409326072543923e-05
3.89412805816452307e-05
3.89416555185769861e-05
3.89421863402432785e-05
3.89426939428606339e-05
3.8943368160484598e-05
3.89442238939717475e-05
3.89450236939978888e-05
3.89461505215463476e-05
3.89471934638638238e-05
3.89485482081994376e-05
3.89500966242208702e-05
3.89516007226164873e-05
3.89534285618289329e-05
3.8955386866803521e-05
3.89570396025661672e-05
3.89592651440328526e-05
3.89613970908917932e-05
3.89637489473294602e-05
3.89669231127204383e-05
3.89700506877311675e-05
3.89733080642660739e-05
3.89773222119029411e-05
3.8981133894778794e-05
3.89847758932410795e-05
3.89896684896822858e-05
3.89952852119665271e-05
3.90001898448968077e-05
3.89398395867285107e-05
3.89398395867285039e-05
3.89398395867285107e-05
3.89398395867285175e-05
3.89398395867285107e-05
3.89398395867285039e-05
3.89398395867285107e-05
3.89398395867285039e-05
3.89398395867285107e-05
3.89398395867285107e-05
3.89398395867285107e-05
3.89398395867285039e-05
3.89398395867285175e-05
3.89398395867285581e-05
3.89398395867286665e-05
3.89398395867290731e-05
3.89398395867303674e-05
3.89398395867342298e-05
3.89398395867449499e-05
3.89398395867727732e-05
3.8939839586839594e-05
3.89398395869804522e-05
3.89398395872588482e-05
3.89398395877965176e-05
3.89398395888114121e-05
3.89398395906878544e-05
3.89398395940928252e-05
3.89398396001654551e-05
3.89398396108208585e-05
3.89398396292281516e-05
3.89398396605488347e-05
3.89398397130556482e-05
3.89398397997942276e-05
3.89398399410009828e-05
3.89398401675502715e-05
3.89398405257721804e-05
3.8939841084060832e-05
3.89398419417599637e-05
3.89398432406945971e-05
3.8939845178622402e-05
3.89398480359363358e-05
3.89398522044777566e-05
3.89398582792918973e-05
3.89398672101801393e-05
3.893987825686414e-05
3.89398935563092818e-05
3.89399160119590618e-05
3.89399421718851683e-05
3.89399789721839385e-05
3.89400207335751654e-05
3.89400802505216175e-05
3.89401429536043203e-05
3.89402236983480497e-05
3.89403359462366731e-05
3.89404443752385681e-05
3.89405961660616024e-05
3.894075372604931e-05
3.89409426579057639e-05
3.89412059430132925e-05
3.89414283100945771e-05
3.89416923067876136e-05
3.89420485243540846e-05
3.89423364481739618e-05
3.89427199093453878e-05
3.89431831596986604e-05
3.89436531618102245e-05
3.89442683838589246e-05
3.89449154299571917e-05
3.89456138110157079e-05
3.89464000782763784e-05
3.89472051649173546e-05
3.89480720746786978e-05
3.89490377215919795e-05
3.89502587265242998e-05
3.89515706903673185e-05
3.89398395867285107e-05
3.89398395867285107e-05
3.89398395867285039e-05
3.89398395867285039e-05
3.89398395867285107e-05
3.89398395867285107e-05
3.89398395867285107e-05
3.89398395867285039e-05
3.89398395867285039e-05
3.89398395867285039e-05
3.89398395867285039e-05
3.89398395867285039e-05
3.89398395867285107e-05
3.89398395867285107e-05
3.89398395867285242e-05
3.89398395867285513e-05
3.89398395867286327e-05
3.89398395867288834e-05
3.89398395867295746e-05
3.89398395867314109e-05
3.89398395867358765e-05
3.89398395867455191e-05
3.89398395867646078e-05
3.8939839586801613e-05
3.89398395868716254e-05
3.89398395870013298e-05
3.89398395872371099e-05
3.89398395876583428e-05
3.89398395883989477e-05
3.89398395896814437e-05
3.89398395918702717e-05
3.89398395955534556e-05
3.8939839601666018e-05
3.89398396116726552e-05
3.89398396278338609e-05
3.89398396535865017e-05
3.89398396940793929e-05
3.89398397569146415e-05
3.8939839853160671e-05
3.89398399987324987e-05
3.89398402163764897e-05
3.89398405384987488e-05
3.89398410118151626e-05
3.89398417011196517e-05
3.89398426558904058e-05
3.89398439959015157e-05
3.89398458871972566e-05
3.89398483875155277e-05
3.89398516930136623e-05
3.89398559473125882e-05
3.89398618255975618e-05
3.89398689602364362e-05
3.89398774637031252e-05
3.89398897376833244e-05
3.89399025226342313e-05
3.89399201859296453e-05
3.89399395545078316e-05
3.89399634947626327e-05
3.89399971787988381e-05
3.89400279086743846e-05
3.89400661622450246e-05
3.89401186768084418e-05
3.89401637266436013e-05
3.89402234308401982e-05
3.89402945883355876e-05
3.89403745500394651e-05
3.89404660145966592e-05
3.89405703015398489e-05
3.89406937650822781e-05
3.89408319430771624e-05
3.89409687498464921e-05
3.89411316080998102e-05
3.89413113764108668e-05
3.89415439884399994e-05
3.89418213508658525e-05
3.89398395867285107e-05
3.89398395867285107e-05
3.89398395867285175e-05
3.89398395867285107e-05
3.89398395867285039e-05
3.89398395867285107e-05
3.89398395867285107e-05
3.89398395867285107e-05
3.89398395867285039e-05
3.89398395867285107e-05
3.89398395867285107e-05
3.89398395867285107e-05
3.89398395867285107e-05
3.89398395867285039e-05
3.89398395867285107e-05
3.89398395867285107e-05
3.89398395867285175e-05
3.89398395867285378e-05
3.89398395867285784e-05
3.89398395867286869e-05
3.89398395867289782e-05
3.89398395867296084e-05
3.8939839586730862e-05
3.89398395867333083e-05
3.89398395867379297e-05
3.89398395867465288e-05
3.89398395867622226e-05
3.89398395867903441e-05
3.8939839586839926e-05
3.89398395869260726e-05
3.89398395870736461e-05
3.89398395873229991e-05
3.89398395877388109e-05
3.89398395884233084e-05
3.89398395895358218e-05
3.89398395913214554e-05
3.89398395941521853e-05
3.89398395985851762e-05
3.893983960544451e-05
3.89398396159346404e-05
3.89398396317984697e-05
3.89398396555364054e-05
3.8939839690707741e-05
3.89398397422917357e-05
3.89398398169318115e-05
3.89398399242898223e-05
3.89398400787614455e-05
3.89398403036386099e-05
3.89398405711009318e-05
3.893984094305151e-05
3.89398414545442611e-05
3.89398421690852567e-05
3.89398429943039275e-05
3.89398441821787517e-05
3.89398455325293556e-05
3.89398473991540693e-05
3.89398494465448568e-05
3.89398521542987048e-05
3.89398559638832429e-05
3.89398595605804356e-05
3.89398642635923277e-05
3.89398705439307529e-05
3.89398762724994953e-05
3.89398840363185968e-05
3.89398934024263126e-05
3.89399054085960526e-05
3.89399185205040828e-05
3.89399329255818807e-05
3.89399520348765259e-05
3.89399737088612764e-05
3.89399940915256641e-05
3.89400186552079427e-05
3.8940048123100553e-05
3.89400847774416009e-05
3.89401331607879754e-05
3.89398395867285039e-05
3.89398395867285107e-05
3.89398395867285039e-05
3.89398395867285039e-05
3.89398395867285039e-05
3.89398395867285107e-05
3.89398395867285039e-05
3.89398395867285107e-05
3.89398395867285107e-05
3.89398395867285107e-05
3.89398395867285039e-05
3.89398395867285107e-05
3.89398395867285039e-05
3.89398395867285039e-05
3.89398395867285039e-05
3.89398395867285039e-05
3.89398395867285039e-05
3.89398395867285107e-05
3.89398395867285107e-05
3.89398395867285175e-05
3.89398395867285378e-05
3.89398395867285784e-05
3.8939839586728653e-05
3.89398395867288156e-05
3.89398395867291002e-05
3.89398395867296355e-05
3.89398395867306317e-05
3.89398395867324274e-05
3.89398395867356054e-05
3.89398395867411484e-05
3.89398395867506826e-05
3.89398395867668576e-05
3.89398395867939626e-05
3.89398395868388418e-05
3.89398395869122423e-05
3.89398395870308879e-05
3.89398395872203997e-05
3.89398395875197072e-05
3.89398395879871e-05
3.89398395887089821e-05
3.89398395898121172e-05
3.89398395914806298e-05
3.89398395939797294e-05
3.89398395976869215e-05
3.89398396031310598e-05
3.89398396110656511e-05
3.89398396225926514e-05
3.89398396394926392e-05
3.89398396612126782e-05
3.89398396920627565e-05
3.89398397351042207e-05
3.89398397956206048e-05
3.89398398691236574e-05
3.89398399741614892e-05
3.89398400995359586e-05
3.89398402737389568e-05
3.89398404688258166e-05
3.89398407335061569e-05
3.89398411086126648e-05
3.89398415041392531e-05
3.893984204600708e-05
3.89398426819739994e-05
3.89398433771606309e-05
3.89398443173455996e-05
3.89398454071583557e-05
3.89398468305964646e-05
3.89398484195230732e-05
3.89398502264872652e-05
3.89398526473576405e-05
3.89398555328517913e-05
3.89398583407012778e-05
3.89398614636642595e-05
3.89398656947663682e-05
3.89398708948757679e-05
3.89398784396959713e-05
3.89398395867285107e-05
3.89398395867285107e-05
3.89398395867285039e-05
3.89398395867285039e-05
3.89398395867285107e-05
3.89398395867285107e-05
3.89398395867285039e-05
3.89398395867285107e-05
3.89398395867285107e-05
3.89398395867285107e-05
3.89398395867285175e-05
3.89398395867285175e-05
3.89398395867285175e-05
3.89398395867285107e-05
3.89398395867285039e-05
3.89398395867285107e-05
3.89398395867285107e-05
3.89398395867285039e-05
3.89398395867285039e-05
3.89398395867285039e-05
3.89398395867285107e-05
3.89398395867285107e-05
3.89398395867285175e-05
3.89398395867285175e-05
3.89398395867285378e-05
3.89398395867285784e-05
3.89398395867286394e-05
3.89398395867287479e-05
3.89398395867289444e-05
3.89398395867292832e-05
3.89398395867298727e-05
3.89398395867308756e-05
3.89398395867325561e-05
3.8939839586735375e-05
3.89398395867399897e-05
3.89398395867475317e-05
3.89398395867596476e-05
3.89398395867789396e-05
3.8939839586809338e-05
3.8939839586856704e-05
3.89398395869297928e-05
3.89398395870414521e-05
3.89398395872103911e-05
3.8939839587463654e-05
3.89398395878398179e-05
3.89398395883936961e-05
3.89398395892021654e-05
3.89398395903705626e-05
3.89398395920304829e-05
3.8939839594366837e-05
3.89398395976231027e-05
3.89398396021306664e-05
3.89398396082705101e-05
3.89398396168469626e-05
3.89398396272108309e-05
3.89398396412150231e-05
3.89398396586938055e-05
3.89398396825700583e-05
3.89398397159296852e-05
3.89398397557187326e-05
3.89398398091457085e-05
3.89398398666157216e-05
3.89398399374676424e-05
3.89398400329043354e-05
3.89398401484296751e-05
3.89398403008467284e-05
3.89398404708234726e-05
3.8939840682328555e-05
3.89398409650879395e-05
3.89398413153697548e-05
3.89398416544882789e-05
3.89398420299245874e-05
3.89398425401048576e-05
3.89398431743813228e-05
3.89398441760955915e-05
3.89398395867285107e-05
3.89398395867285107e-05
3.89398395867285175e-05
3.89398395867285107e-05
3.89398395867285107e-05
3.89398395867285107e-05
3.89398395867285175e-05
3.89398395867285107e-05
3.89398395867285039e-05
3.89398395867285039e-05
3.89398395867285039e-05
3.89398395867285107e-05
3.89398395867285039e-05
3.89398395867285107e-05
3.89398395867285107e-05
3.89398395867285039e-05
3.89398395867285039e-05
3.89398395867285107e-05
3.89398395867285107e-05
3.89398395867285039e-05
3.89398395867285039e-05
3.89398395867285039e-05
3.89398395867285039e-05
3.89398395867285107e-05
3.89398395867285107e-05
3.89398395867285107e-05
3.89398395867285107e-05
3.89398395867285039e-05
3.89398395867285175e-05
3.89398395867285378e-05
3.89398395867285784e-05
3.89398395867286394e-05
3.89398395867287411e-05
3.89398395867289037e-05
3.89398395867291951e-05
3.89398395867296626e-05
3.89398395867304216e-05
3.89398395867316345e-05
3.8939839586733559e-05
3.8939839586736588e-05
3.89398395867412975e-05
3.89398395867485752e-05
3.89398395867596612e-05
3.89398395867764527e-05
3.89398395868016469e-05
3.89398395868390858e-05
3.89398395868942581e-05
3.89398395869747804e-05
3.89398395870909391e-05
3.89398395872568695e-05
3.89398395874915044e-05
3.89398395878198008e-05
3.89398395882738444e-05
3.89398395888955666e-05
3.89398395897213424e-05
3.89398395908198153e-05
3.89398395922982063e-05
3.89398395943427744e-05
3.89398395971024078e-05
3.89398396004951949e-05
3.89398396052850578e-05
3.89398396108929512e-05
3.89398396178482098e-05
3.89398396273194679e-05
3.89398396389434569e-05
3.89398396530531014e-05
3.89398396698074402e-05
3.89398396926654171e-05
3.89398397230022883e-05
3.89398397621133841e-05
3.89398397997206712e-05
3.89398398422450117e-05
3.89398399002281303e-05
3.89398399763407017e-05
3.89398401004565953e-05
3.89398395867285107e-05
3.89398395867285039e-05
3.89398395867285039e-05
3.89398395867285107e-05
3.89398395867285107e-05
3.89398395867285107e-05
3.89398395867285039e-05
3.89398395867285039e-05
3.89398395867285107e-05
3.89398395867285039e-05
3.89398395867285107e-05
3.89398395867285107e-05
3.89398395867285107e-05
3.89398395867285039e-05
3.89398395867285107e-05
3.89398395867285107e-05
3.89398395867285107e-05
3.89398395867285039e-05
3.89398395867285107e-05
3.89398395867285175e-05
3.89398395867285175e-05
3.89398395867285107e-05
3.89398395867285039e-05
3.89398395867285039e-05
3.89398395867285039e-05
3.89398395867285039e-05
3.89398395867285107e-05
3.89398395867285107e-05
3.89398395867285107e-05
3.89398395867285107e-05
3.89398395867285242e-05
3.89398395867285581e-05
3.89398395867286056e-05
3.89398395867286869e-05
3.89398395867288224e-05
3.8939839586729046e-05
3.8939839586729378e-05
3.89398395867299269e-05
3.89398395867307672e-05
3.8939839586732075e-05
3.8939839586734074e-05
3.89398395867371098e-05
3.89398395867416905e-05
3.89398395867485142e-05
3.89398395867585363e-05
3.89398395867731595e-05
3.89398395867942743e-05
3.89398395868244626e-05
3.89398395868672818e-05
3.89398395869275838e-05
3.89398395870118805e-05
3.89398395871288727e-05
3.89398395872900258e-05
3.89398395875103966e-05
3.893983958781089e-05
3.893983958822246e-05
3.89398395887946409e-05
3.89398395896018836e-05
3.89398395905918347e-05
3.89398395919742399e-05
3.89398395938820089e-05
3.89398395964893728e-05
3.89398396000613785e-05
3.89398396051214313e-05
3.89398396109447015e-05
3.89398396180774982e-05
3.89398396277265113e-05
3.89398396405458264e-05
3.89398396578516582e-05
3.89398396785339802e-05
3.89398397029975453e-05
3.89398397336765704e-05
3.89398397725289959e-05
3.89398398222022063e-05
3.89398399044319006e-05
3.89398395867285107e-05
3.89398395867285039e-05
3.89398395867285039e-05
3.89398395867285039e-05
3.89398395867285107e-05
3.89398395867285039e-05
3.89398395867285039e-05
3.89398395867285107e-05
3.89398395867285039e-05
3.89398395867285039e-05
3.89398395867285107e-05
3.89398395867285107e-05
3.89398395867285107e-05
3.89398395867285107e-05
3.89398395867285107e-05
3.89398395867285107e-05
3.89398395867285039e-05
3.89398395867285107e-05
3.89398395867285039e-05
3.89398395867285039e-05
3.89398395867285039e-05
3.89398395867285039e-05
3.89398395867285107e-05
3.89398395867285039e-05
3.89398395867285175e-05
3.89398395867285378e-05
3.89398395867285649e-05
3.89398395867286123e-05
3.89398395867287072e-05
3.89398395867288495e-05
3.8939839586729107e-05
3.89398395867295475e-05
3.89398395867302725e-05
3.89398395867314922e-05
3.89398395867334574e-05
3.89398395867366015e-05
3.89398395867416092e-05
3.89398395867494561e-05
3.89398395867616127e-05
3.89398395867802e-05
3.89398395868083554e-05
3.89398395868504699e-05
3.89398395869128454e-05
3.89398395870040878e-05
3.89398395871359132e-05
3.89398395873239816e-05
3.89398395875891978e-05
3.89398395879594799e-05
3.89398395884723889e-05
3.8939839589178191e-05
3.89398395901435171e-05
3.89398395914537551e-05
3.89398395932133068e-05
3.89398395955380531e-05
3.89398395986373128e-05
3.8939839602809377e-05
3.89398396084890446e-05
3.89398396162106105e-05
3.89398396265620104e-05
3.89398396403595808e-05
3.89398396587596504e-05
3.89398396834427055e-05
3.89398397167758711e-05
3.89398397619985739e-05
3.89398398233477608e-05
3.89398398915391172e-05
3.89398399818761026e-05
3.8939840105733868e-05
3.89398402806497224e-05
3.89398405337615036e-05
3.89398407078910065e-05
3.89398408807164377e-05
3.8939841130106512e-05
3.89398414808846209e-05
3.89398420722210354e-05
3.89398395867285039e-05
3.89398395867285039e-05
3.89398395867285107e-05
3.89398395867285039e-05
3.89398395867285039e-05
3.89398395867285107e-05
3.89398395867285039e-05
3.89398395867285107e-05
3.89398395867285039e-05
3.89398395867284971e-05
3.89398395867284971e-05
3.89398395867284971e-05
3.89398395867285039e-05
3.89398395867285107e-05
3.89398395867285039e-05
3.89398395867285039e-05
3.89398395867285107e-05
3.89398395867285039e-05
3.89398395867285039e-05
3.89398395867285039e-05
3.89398395867285107e-05
3.89398395867285378e-05
3.89398395867285784e-05
3.8939839586728653e-05