/*--------------------------------*- C++ -*----------------------------------*\
  =========                 |
  \\      /  F ield         | OpenFOAM: The Open Source CFD Toolbox
   \\    /   O peration     | Website:  https://openfoam.org
    \\  /    A nd           | Version:  8
     \\/     M anipulation  |
\*---------------------------------------------------------------------------*/
FoamFile
{
    version     2.0;
    format      ascii;
    class       volScalarField;
    location    "0.4";
    object      H(s);
}
// * * * * * * * * * * * * * * * * * * * * * * * * * * * * * * * * * * * * * //

dimensions      [0 0 0 0 0 0 0];

internalField   uniform 0;

boundaryField
{
    reactingWall
    {
        type            fixedValue;
        value           nonuniform List<scalar> 
75
(
1.37866490430051494e-07
1.36374630821388505e-07
1.34646096721119545e-07
1.32702799148430169e-07
1.30895962793962234e-07
1.29126778866088308e-07
1.27259434465077417e-07
1.2525217752205888e-07
1.23199267294377651e-07
1.21125040092756918e-07
1.1902081680715437e-07
1.16873488683231083e-07
1.14684196178771378e-07
1.1246630988116756e-07
1.10206139737319009e-07
1.07898988980698904e-07
1.05544723906042157e-07
1.03149493342481832e-07
1.00727724085325829e-07
9.82860048685396552e-08
9.58275278343711622e-08
9.33565372870178501e-08
9.0875942599378593e-08
8.83863117236823562e-08
8.58920286402040797e-08
8.33967372173162299e-08
8.08978145914718453e-08
7.84019534109843344e-08
7.59078342882536505e-08
7.34168619624302281e-08
7.09328523994273163e-08
6.84492515894992007e-08
6.82906716277601884e-08
6.8139467574817918e-08
6.80024787041755493e-08
6.78766111217956199e-08
6.77652447578753412e-08
6.76729333421835445e-08
6.76061349877464674e-08
6.75658351998142067e-08
6.75405422939430928e-08
6.75217393370601452e-08
6.7503624226789491e-08
6.74840594260816199e-08
6.74609594324873941e-08
6.74358390536413334e-08
6.74048557847569977e-08
6.73726271158647111e-08
6.73350912981496414e-08
6.72962558465183295e-08
6.72513542165844434e-08
6.72054741948323984e-08
6.71555603812685494e-08
6.71031666793252631e-08
6.70428275740391729e-08
6.69738827932145882e-08
6.69114405127572485e-08
6.68467364937549055e-08
6.67820082005509698e-08
6.67200326142864928e-08
6.66624103722858662e-08
6.66090363576161284e-08
6.65598802387081219e-08
6.65069298743717116e-08
6.64530427355531673e-08
6.64016612939405257e-08
6.63441763546501455e-08
6.62861437353870347e-08
6.62256919113414399e-08
6.61658410321800032e-08
6.61073273250595535e-08
6.60522416160201846e-08
6.60002649716239633e-08
6.59432059035937173e-08
6.58362963904872409e-08
)
;
    }
    inertWall
    {
        type            zeroGradient;
    }
    inlet
    {
        type            fixedValue;
        value           uniform 0;
    }
    outlet
    {
        type            zeroGradient;
    }
    defaultFaces
    {
        type            empty;
    }
}


// ************************************************************************* //
