/*--------------------------------*- C++ -*----------------------------------*\
  =========                 |
  \\      /  F ield         | OpenFOAM: The Open Source CFD Toolbox
   \\    /   O peration     | Website:  https://openfoam.org
    \\  /    A nd           | Version:  8
     \\/     M anipulation  |
\*---------------------------------------------------------------------------*/
FoamFile
{
    version     2.0;
    format      ascii;
    class       volScalarField;
    location    "0.4";
    object      p;
}
// * * * * * * * * * * * * * * * * * * * * * * * * * * * * * * * * * * * * * //

dimensions      [1 -1 -2 0 0 0 0];

internalField   nonuniform List<scalar> 
1800
(
101325.250126409985
101325.216314276637
101325.198958621419
101325.196349532969
101325.19373207743
101325.187471724217
101325.180439119838
101325.174647926789
101325.169817553848
101325.165033616286
101325.160003606667
101325.154942349633
101325.150047200048
101325.145305328784
101325.140624739826
101325.220639361811
101325.209379374297
101325.198510002185
101325.194156818921
101325.191099761418
101325.1858980135
101325.17965502372
101325.174117958246
101325.1693906992
101325.164748540075
101325.159870254021
101325.154928721342
101325.1501312193
101325.145493783479
101325.140940553567
101325.219623707526
101325.211068103003
101325.200335225716
101325.19419739132
101325.190743050407
101325.1861946961
101325.180356619036
101325.174766894081
101325.169916246246
101325.165275924155
101325.160461538486
101325.155564632281
101325.150785745034
101325.146169519037
101325.141675753082
101325.207289677332
101325.202737317813
101325.196239210927
101325.191590309565
101325.188354128346
101325.184330491553
101325.179176040969
101325.173988510258
101325.169316530242
101325.164843697785
101325.160223929575
101325.155493671089
101325.150837914553
101325.14633016818
101325.141953446495
101325.206156790213
101325.203290068879
101325.197700630233
101325.192397494058
101325.188364876798
101325.184319305801
101325.17951698284
101325.174481253984
101325.169746367494
101325.16522356357
101325.16064004034
101325.155967431521
101325.151344317754
101325.146854267063
101325.142497012537
101325.200273821916
101325.197909064344
101325.193723951073
101325.189672090855
101325.186294636515
101325.182735526512
101325.178442775301
101325.173775734816
101325.169226042679
101325.164833638148
101325.160402653564
101325.155875450699
101325.151355034177
101325.146932284362
101325.142621609222
101325.199518103589
101325.198140431195
101325.19481713156
101325.19071816621
101325.186827937374
101325.182983672828
101325.178732193453
101325.174151307903
101325.169581698923
101325.165132210794
101325.160689810276
101325.156184885054
101325.1516795028
101325.147256045559
101325.142939704325
101325.196697586332
101325.195161351585
101325.192064092946
101325.188507980594
101325.185140176822
101325.181713590791
101325.177831847308
101325.17354500998
101325.169149582944
101325.164804753964
101325.160467566413
101325.156068244862
101325.151642726079
101325.147268061846
101325.142979791664
101325.196603008953
101325.195625061271
101325.193125744234
101325.189674474939
101325.186014083432
101325.182288287004
101325.178273178288
101325.173928131248
101325.169472819296
101325.165069192473
101325.160689661003
101325.156274481938
101325.15183700413
101325.147445314185
101325.14314065098
101325.195563985602
101325.194337340668
101325.191625899926
101325.188238902672
101325.18485423518
101325.181430119526
101325.177658212066
101325.173494613788
101325.169156471267
101325.164831353351
101325.160523734434
101325.156172819508
101325.151779531647
101325.147416707288
101325.143129813267
101325.195516719847
101325.194298568647
101325.191594522505
101325.188207874016
101325.184821446965
101325.181405022624
101325.177630097256
101325.173451469702
101325.169116031699
101325.164800479528
101325.160492331255
101325.156127336886
101325.151731035192
101325.147368456644
101325.143083748946
101325.196586317747
101325.195606617708
101325.193102445672
101325.189647575913
101325.185986913173
101325.182264141491
101325.17824900226
101325.173908717086
101325.169453892551
101325.165043684756
101325.160662591123
101325.156242221492
101325.151803287081
101325.147412174585
101325.143108908727
101325.196692589758
101325.195158758375
101325.192064452785
101325.188509812608
101325.185143029696
101325.181717856205
101325.177832889443
101325.173530190543
101325.169134635697
101325.164804214204
101325.160469199429
101325.156067639531
101325.151640341195
101325.147264893036
101325.142976670468
101325.199514712614
101325.198138282271
101325.194816921168
101325.190719217513
101325.186829276296
101325.182984687388
101325.17873045805
101325.174143053358
101325.169573151623
101325.165129299145
101325.160688922435
101325.156183498606
101325.1516772545
101325.147253276315
101325.142936853648
101325.200271430964
101325.197907275913
101325.193723244767
101325.189672198467
101325.186294762039
101325.182734920396
101325.178440258358
101325.173770298934
101325.169220310723
101325.164830154506
101325.160400430512
101325.155873256881
101325.151352452158
101325.14692935592
101325.14261851742
101325.206154824686
101325.203288457473
101325.197699644268
101325.192396945466
101325.188364192916
101325.184317908002
101325.179514306859
101325.174477117223
101325.169741954785
101325.165220023831
101325.160637166759
101325.155964669873
101325.151341366873
101325.146851062658
101325.14249359534
101325.207287977231
101325.202735796483
101325.196238004952
101325.191589292837
101325.188352924
101325.184328699776
101325.179173380311
101325.173985004658
101325.169312760685
101325.164840221245
101325.160220747086
101325.155490543504
101325.150834653294
101325.146326685586
101325.141949717305
101325.21962211444
101325.211066609874
101325.200333881367
101325.194196083117
101325.190741522078
101325.1861926852
101325.180353976481
101325.174763681061
101325.169912768994
101325.165272474434
101325.160458165075
101325.155561234074
101325.150782204291
101325.14616574689
101325.141671691104
101325.220637828243
101325.209377883861
101325.198508562375
101325.194155336896
101325.191098054187
101325.185895895207
101325.179652402468
101325.17411488753
101325.169387360977
101325.164745107686
101325.159866777263
101325.1549251533
101325.150127485584
101325.145489806207
101325.140936265088
101325.250124903192
101325.216312789838
101325.198957137822
101325.196347957884
101325.193730270257
101325.187469540251
101325.180436491108
101325.174644895407
101325.169814248904
101325.165030166332
101325.1600000615
101325.154938682812
101325.150043340182
101325.145301197277
101325.140620260252
101325.136963010795
101325.134099751536
101325.130833622214
101325.127191043677
101325.123650655631
101325.120393032441
101325.117294249721
101325.114232181921
101325.111204793357
101325.108259205968
101325.105414256672
101325.102656596209
101325.099971156407
101325.097354976038
101325.094810618684
101325.09233788609
101325.089933071198
101325.087592039723
101325.085311837916
101325.083090147717
101325.080924438007
101325.078811853266
101325.076749528467
101325.074734785521
101325.072765104793
101325.070838045183
101325.068951229114
101325.067102372734
101325.065289306323
101325.063509968822
101325.061762391109
101325.06004468078
101325.058355007379
101325.056691582868
101325.055052633266
101325.053436383707
101325.051841285502
101325.050265769707
101325.048708013259
101325.047165616546
101325.045639602089
101325.04412796328
101325.042628901327
101325.041141835871
101325.039666048542
101325.03820165286
101325.036747767284
101325.035304598976
101325.033873506938
101325.032453677166
101325.031044967807
101325.029646575465
101325.028255157638
101325.02686857208
101325.025481573568
101325.024087521349
101325.022668327452
101325.02118978677
101325.019614746561
101325.01800630035
101325.017039449667
101325.016850123458
101325.01667148195
101325.016203706502
101325.015324714186
101325.013334510135
101325.01092388542
101325.009068614891
101325.007454407707
101325.005979298963
101325.004631571297
101325.003370672304
101325.00214801915
101325.000888774157
101324.99958977924
101325.137243302903
101325.134283321182
101325.131048434487
101325.127483111399
101325.123983740923
101325.120733516698
101325.117640671524
101325.114589928504
101325.111570048422
101325.108623695254
101325.105773108298
101325.103008813239
101325.10031601417
101325.097690624127
101325.095135164491
101325.092650330262
101325.090233085124
101325.087879400045
101325.085586279602
101325.083351529523
101325.081172843493
101325.079047529493
101325.076972790645
101325.074945986067
101325.072964646839
101325.071026387872
101325.069128871415
101325.06726983418
101325.065447118221
101325.06365867336
101325.061902541012
101325.060176837083
101325.058479736792
101325.056809457426
101325.055164240155
101325.053542359368
101325.051942214239
101325.050362117705
101325.048799802025
101325.047254175646
101325.045724124517
101325.044209485903
101325.042708068548
101325.041219646271
101325.039742875757
101325.038277668937
101325.036824426716
101325.035380000991
101325.033950676589
101325.03253816627
101325.031138557883
101325.029755422234
101325.028390194275
101325.027049338387
101325.02573356792
101325.02446471322
101325.023248414815
101325.022057029462
101325.020827503351
101325.019498007154
101325.018158456718
101325.016369050689
101325.014940001565
101325.014173938194
101325.013071052686
101325.012312563485
101325.011510146913
101325.009614732568
101325.007791233511
101325.006393162039
101325.005152901867
101325.004017375002
101325.002810487626
101325.001227366098
101324.999492509756
101325.137812557543
101325.134621918594
101325.131413923227
101325.12795969758
101325.124495000593
101325.121216360858
101325.118096465099
101325.115037039475
101325.112010549972
101325.10904951104
101325.106179894909
101325.103397679617
101325.100688525272
101325.09804651585
101325.095473595225
101325.092971175851
101325.090536809264
101325.088166444053
101325.085856896942
101325.083605999826
101325.081411617095
101325.079271170907
101325.077181881687
101325.075141101275
101325.073146375726
101325.071195342767
101325.069285668797
101325.067415072088
101325.065581363844
101325.063782457553
101325.062016351643
101325.06028111052
101325.05857485348
101325.056895747373
101325.055242000832
101325.053611867639
101325.052003660952
101325.050415703212
101325.048846310747
101325.04729429631
101325.045758592183
101325.044238409813
101325.042732381335
101325.041239618935
101325.039759412874
101325.038291492165
101325.036833698556
101325.035387917917
101325.033955660707
101325.032535800055
101325.03112455309
101325.029718469363
101325.028313697854
101325.026901371763
101325.02545794686
101325.023965508735
101325.022389039033
101325.02064942717
101325.018659267516
101325.016527504253
101325.014795190858
101325.015083290185
101325.016022236901
101325.016272195862
101325.016184087726
101325.014523598031
101325.011249534073
101325.008846687502
101325.007349680702
101325.005946484889
101325.00444429637
101325.00302369117
101325.001698725129
101325.000464138706
101324.999383240356
101325.137987779832
101325.134699904287
101325.131607515359
101325.128315094495
101325.124915792156
101325.121633841249
101325.118516045492
101325.115481905523
101325.112481542063
101325.10953279816
101325.106665536499
101325.103883498159
101325.101173924908
101325.098528660514
101325.09594859858
101325.093436139752
101325.090990076802
101325.08860680541
101325.086283154655
101325.084017106536
101325.081806874543
101325.079650205444
101325.077544510845
101325.075487260765
101325.073476122139
101325.071508861569
101325.069583252945
101325.067697089224
101325.065848235376
101325.064034650874
101325.062254376113
101325.060505512753
101325.058786215042
101325.057094687887
101325.055429184489
101325.053788006422
101325.052169510891
101325.050572110806
101325.048994289813
101325.047434711567
101325.045892191847
101325.044365719456
101325.04285432864
101325.041357149632
101325.039873800284
101325.038403030878
101325.036945722051
101325.035502306622
101325.034073487986
101325.032659771518
101325.031261024036
101325.029878801695
101325.028515829705
101325.027175825118
101325.025865188509
101325.024600727469
101325.023400116668
101325.022270294474
101325.021201086565
101325.020098535737
101325.01873345756
101325.016851740613
101325.015249464719
101325.013699983218
101325.012353077094
101325.011416938607
101325.010528643572
101325.009275782184
101325.008014677631
101325.006767621919
101325.005555605807
101325.004381319013
101325.003077255664
101325.001496364828
101324.999873934881
101325.138470184887
101325.135094405035
101325.132015817799
101325.128776219673
101325.125383314939
101325.122070850382
101325.118932741068
101325.115899168319
101325.11290060496
101325.109942200696
101325.107058226436
101325.104260326494
101325.101537317489
101325.098878524397
101325.096283450985
101325.093755280162
101325.091293924022
101325.088895989902
101325.086557973758
101325.084277695321
101325.082053502716
101325.079883308834
101325.077764563262
101325.075694702275
101325.073671381688
101325.071692390746
101325.069755522141
101325.067858562339
101325.06599935409
101325.064175832827
101325.062386015969
101325.060627979823
101325.058899851239
101325.057199810646
101325.055526096941
101325.053877010985
101325.052250923385
101325.050646286705
101325.049061655081
101325.047495728257
101325.045947386432
101325.04441568465
101325.042899780005
101325.041398874833
101325.039912380496
101325.038439678407
101325.036980977035
101325.035536411247
101325.034106139472
101325.032689950414
101325.031286478785
101325.029892577804
101325.028500760876
101325.027096679842
101325.025657022008
101325.024149278383
101325.022533075564
101325.020770427916
101325.018881416574
101325.017092063281
101325.015866471644
101325.015589009316
101325.015562711007
101325.015509606936
101325.014981365952
101325.013535368154
101325.0114397578
101325.009500271291
101325.007834189935
101325.006246467135
101325.00468884634
101325.003197417871
101325.001837899428
101325.000691807218
101324.999786414701
101325.138569700342
101325.135180783036
101325.132142024755
101325.1289699927
101325.125625557572
101325.122333746433
101325.119210092962
101325.116196926727
101325.113217990656
101325.110270779696
101325.107391445461
101325.104596856239
101325.101877180277
101325.09921991489
101325.096623425939
101325.094091604929
101325.091625333211
101325.089221444679
101325.086876247398
101325.084587564037
101325.082354029946
101325.080173870767
101325.078044715643
101325.075964096104
101325.073929769424
101325.071939648275
101325.069991635595
101325.068083595703
101325.066213426806
101325.064379113872
101325.062578723024
101325.060810376861
101325.059072245727
101325.057362555614
101325.055679597092
101325.05402172968
101325.052387386648
101325.05077508543
101325.049183445051
101325.047611212707
101325.046057291096
101325.044520737705
101325.043000725476
101325.041496514445
101325.04000752297
101325.038533381172
101325.037074198073
101325.035630344326
101325.034202561801
101325.032791737816
101325.031398556981
101325.030023108426
101325.028664580357
101325.027322168651
101325.025998123587
101325.024704073992
101325.02346520529
101325.022304784361
101325.021195293171
101325.0200914038
101325.018830424538
101325.017284900619
101325.015712318505
101325.014092820798
101325.012442620849
101325.011168236946
101325.010148272719
101325.009046409396
101325.007842495776
101325.006685581568
101325.005586109837
101325.004439611206
101325.003194662655
101325.001837285556
101325.000438331976
101325.138882195388
101325.13547195209
101325.132428191442
101325.129270864025
101325.125935259566
101325.122634305735
101325.119495637526
101325.116473853079
101325.113490732445
101325.110537155764
101325.107647954384
101325.104842797198
101325.102113451911
101325.099446642314
101325.096839789374
101325.094296950425
101325.091819699534
101325.089405197345
101325.087049659371
101325.08475083347
101325.082507456958
101325.080317881992
101325.078179767748
101325.076090606337
101325.074048121198
101325.072050219635
101325.070094803261
101325.068179719514
101325.066302839245
101325.064462122144
101325.062655615227
101325.060881425103
101325.059137706383
101325.057422671161
101325.055734601352
101325.054071854276
101325.052432865428
101325.050816158575
101325.049220364424
101325.047644248581
101325.04608674215
101325.044546952515
101325.043024124141
101325.041517584556
101325.040026766728
101325.038551307749
101325.037091197912
101325.035646837816
101325.034219125359
101325.032809299068
101325.031418378538
101325.030045769876
101325.028686210717
101325.027324363677
101325.025928990479
101325.024456011335
101325.022873011607
101325.021178696261
101325.019281349654
101325.017539103617
101325.016309454659
101325.015648314074
101325.015224002389
101325.014694971949
101325.014091508943
101325.013013973279
101325.011444434189
101325.009773546408
101325.008212302331
101325.006721617596
101325.005144242998
101325.003573946116
101325.002183577511
101325.001034565605
101325.000113895687
101325.138921645543
101325.135518143681
101325.132492205972
101325.129361656655
101325.126050178034
101325.122763288891
101325.119633599432
101325.116623264999
101325.113653782566
101325.110710908775
101325.107827606393
101325.105025796438
101325.102299329214
101325.099634806174
101325.097028793287
101325.094485296082
101325.092006466002
101325.089589837167
101325.087231628917
101325.084929481411
101325.0826821316
101325.080488040461
101325.078344965194
101325.076250452214
101325.074202280361
101325.072198436217
101325.070236904299
101325.06831559712
101325.066432433567
101325.064585415312
101325.062772632562
101325.060992234838
101325.059242416624
101325.057521427982
101325.055827591423
101325.054159307634
101325.052515055533
101325.050893397609
101325.049292995958
101325.047712640444
101325.046151291172
101325.044608122582
101325.043082465607
101325.041573690221
101325.040081190877
101325.038604493238
101325.037143447174
101325.035698479507
101325.034270899749
101325.032863141503
101325.031478802252
101325.030122110271
101325.028795966238
101325.027497380477
101325.02621105405
101325.024912179244
101325.023624207111
101325.022554743613
101325.020940969393
101325.019530885533
101325.018367814948
101325.017145627819
101325.015838379622
101325.014569422172
101325.012970000971
101325.011418471491
101325.010174391282
101325.009040200981
101325.0078718726
101325.006670640083
101325.005460597284
101325.004300912391
101325.003115605155
101325.001883744117
101325.000652138755
101325.139079430999
101325.135667889961
101325.132636409297
101325.129506500627
101325.126196522848
101325.122905944983
101325.119769338024
101325.116753044684
101325.113778942905
101325.11083033093
101325.107939424794
101325.105129764619
101325.102396495582
101325.099725908003
101325.097113757758
101325.094563892097
101325.092078816902
101325.089656285287
101325.087292416269
101325.084984724614
101325.082731968709
101325.080532739084
101325.078384876062
101325.076285926029
101325.074233644133
101325.072226004515
101325.07026098005
101325.068336458411
101325.066450323706
101325.064600541402
101325.062785176429
101325.061002361981
101325.059250276434
101325.057527155252
101325.055831311329
101325.054161140477
101325.052515116302
101325.050891789899
101325.049289798728
101325.047707890844
101325.046144989363
101325.044600357884
101325.043073482142
101325.041563811144
101325.040070683375
101325.038593394536
101325.037131426012
101325.035684862902
101325.034254950151
101325.032844739428
101325.031459766804
101325.030108286941
101325.028799041436
101325.027530284802
101325.026258179976
101325.024834228083
101325.023032426121
101325.020905523212
101325.018897208764
101325.017196473127
101325.016095774597
101325.015377986289
101325.014911975435
101325.014621214053
101325.013781329661
101325.012761607912
101325.011420934505
101325.009901055091
101325.008447077169
101325.007031500703
101325.005512186806
101325.003840672172
101325.002309468837
101325.00110113321
101325.000191320374
101325.139072549704
101325.135666923859
101325.132643550314
101325.129521716546
101325.126218100544
101325.12293159921
101325.119797872394
101325.116785059581
101325.113815641875
101325.11087158641
101325.107984322633
101325.105177732723
101325.102447322468
101325.0997791798
101325.097168753156
101325.094619940908
101325.092135513289
101325.08971336305
101325.08734958015
101325.085041673461
101325.082788534433
101325.08058879392
101325.078440221987
101325.0763402921
101325.074286738309
101325.072277554907
101325.070310747615
101325.068384235667
101325.066495933497
101325.064643824589
101325.062826008696
101325.061040661356
101325.059285994299
101325.057560273999
101325.055861847388
101325.054189145507
101325.052540674442
101325.050915007247
101325.049310777133
101325.047726664983
101325.046161410646
101325.044614428116
101325.043085475423
101325.041574194605
101325.040079967715
101325.038601805572
101325.037138554471
101325.035689482946
101325.034255122897
101325.032838417479
101325.03144650266
101325.030093596288
101325.028805803755
101325.027626647585
101325.026606470696
101325.025610533703
101325.023876269508
101325.023678601065
101325.026480099856
101325.027251581341
101325.025375204772
101325.022674352746
101325.019571346682
101325.016066496537
101325.01377425484
101325.012032300307
101325.010366450151
101325.009061104138
101325.007995751759
101325.006984855296
101325.006179388263
101325.005476607752
101325.004487640574
101325.002968112138
101325.000976007839
101325.139028049467
101325.13562376902
101325.132600602767
101325.129480648175
101325.126179108993
101325.122894381115
101325.119762486313
101325.116752499875
101325.113785751339
101325.110844072231
101325.107958996668
101325.105154385019
101325.102425749967
101325.099759212128
101325.097150246293
101325.094602767465
101325.092119555731
101325.08969851071
101325.087335726566
101325.085028707137
101325.082776324183
101325.080577250279
101325.078429275061
101325.076329870877
101325.07427676559
101325.072267948883
101325.070301424668
101325.068375114133
101325.066486944692
101325.064634958399
101325.062817273763
101325.061032044017
101325.059277467662
101325.057551809281
101325.055853410784
101325.054180685474
101325.052532098314
101325.050906138058
101325.049301278385
101325.047715905166
101325.046148055117
101325.044594217063
101325.043050171764
101325.041512657714
101325.03998051268
101325.038454469541
101325.03693532724
101325.035421140332
101325.033904034222
101325.032366847212
101325.030780419402
101325.029103084948
101325.027285543969
101325.025293651255
101325.023191200351
101325.021442614889
101325.0213387572
101325.020691642756
101325.018834488365
101325.017877869715
101325.017007846167
101325.016009691273
101325.015050998554
101325.01387680108
101325.013320072976
101325.012630628189
101325.011698233982
101325.010292142528
101325.008561312308
101325.006861231072
101325.005311476969
101325.003927650425
101325.002629678056
101325.001467652983
101325.000338760525
101325.139048426965
101325.135637716347
101325.13260703547
101325.129478640563
101325.126169979325
101325.122880634226
101325.119744956013
101325.116729641202
101325.113756445513
101325.110808693993
101325.107918656067
101325.105109835611
101325.102377345334
101325.099707466739
101325.097095952398
101325.094546645807
101325.092062049313
101325.089639913436
101325.087276355232
101325.084968891941
101325.082716296267
101325.080517124734
101325.078369213035
101325.076270115576
101325.074217590067
101325.072209608756
101325.070244143441
101325.068319084283
101325.066432322928
101325.064581838247
101325.062765691968
101325.060982004652
101325.059228959042
101325.057504815093
101325.055807922297
101325.054136724822
101325.052489759619
101325.050865649799
101325.049263096313
101325.047680871619
101325.046117884151
101325.044573475505
101325.043047343177
101325.041539222104
101325.040048216106
101325.038572677251
101325.037110718782
101325.035661019618
101325.034223826297
101325.032802238056
101325.031404179652
101325.03004515027
101325.028753823019
101325.027583309537
101325.026621557263
101325.026040869081
101325.026045389095
101325.024649011437
101325.021189694904
101325.018619919574
101325.017397219577
101325.016344617979
101325.015487753306
101325.01498850483
101325.013640347883
101325.012112916957
101325.010798473595
101325.009611722955
101325.008401619067
101325.007090096682
101325.005655642759
101325.004183688958
101325.002748902392
101325.001422670553
101325.000359589059
101325.138919218691
101325.135515627509
101325.132489355485
101325.129358650782
101325.126047425365
101325.122760710394
101325.119631299211
101325.116621167632
101325.11365158511
101325.110708390363
101325.107824684048
101325.105022432181
101325.102295479694
101325.099630419412
101325.097023813927
101325.094479666499
101325.092000123812
101325.089582713728
101325.087223649651
101325.084920565379
101325.0826721919
101325.08047697341
101325.078332655263
101325.076236780675
101325.074187126069
101325.072181672906
101325.070218400375
101325.068295218371
101325.066410046304
101325.064560887287
101325.062745829389
101325.060963019831
101325.05921066369
101325.057487041195
101325.055790521248
101325.054119558685
101325.052472675059
101325.050848432016
101325.049245426271
101325.047662337762
101325.046098031467
101325.044551662577
101325.043022742888
101325.041511248506
101325.040017183259
101325.038540340422
101325.037080521128
101325.035638076748
101325.034214474377
101325.032812203382
101325.03143612291
101325.030095079012
101325.028801457869
101325.027563441821
101325.026355936017
101325.025000871799
101325.022997993336
101325.021441213161
101325.020482254156
101325.019248057069
101325.018124648996
101325.017078477948
101325.015871331008
101325.014701806314
101325.013463649404
101325.012217245792
101325.010910814381
101325.009432445542
101325.007959786322
101325.006658216793
101325.005434935403
101325.004197745191
101325.003053733148
101325.001919231989
101325.000710573979
101325.138879512539
101325.135469195913
101325.132425204196
101325.129267717319
101325.125932146548
101325.122631212304
101325.119492544996
101325.116470667504
101325.113487258379
101325.110533223531
101325.107643465846
101325.104837682244
101325.102107634113
101325.099440035847
101325.096832305135
101325.094288496199
101325.091810176411
101325.089394497511
101325.087037665071
101325.084737418336
101325.082492484653
101325.080301202179
101325.078161216967
101325.076070011884
101325.074025302631
101325.072024988141
101325.070066961533
101325.068149064158
101325.066269163086
101325.064425216173
101325.062615270523
101325.060837438694
101325.059089898001
101325.057370914554
101325.055678873279
101325.054012301509
101325.052369875091
101325.050750398208
101325.049152774649
101325.047575993623
101325.046019107322
101325.044481241915
101325.042961361542
101325.041457924613
101325.039969367208
101325.038494642737
101325.03703351751
101325.035586916812
101325.034157034679
101325.032747810314
101325.031364154784
101325.03001064407
101325.028688233928
101325.027385295165
101325.026060273507
101325.024624318088
101325.022996828557
101325.021490849671
101325.020182189925
101325.018796980235
101325.017383910337
101325.016048008591
101325.014813503061
101325.013765001888
101325.012858885893
101325.011989151637
101325.011025024709
101325.009971252992
101325.008658924024
101325.00713723748
101325.00560849953
101325.004070553114
101325.002550216945
101325.001235721546
101325.000179884024
101325.138566543945
101325.135177486722
101325.132138518544
101325.128966292337
101325.125621728032
101325.122329772334
101325.119205923183
101325.11619246444
101325.113213089178
101325.11026529684
101325.107385271433
101325.104589895316
101325.10186932965
101325.099211060806
101325.096613448972
101325.094080381125
101325.091612728866
101325.089207314275
101325.086860432522
101325.084569893646
101325.082334319333
101325.08015191993
101325.078020308865
101325.07593700361
101325.073899748473
101325.071906443598
101325.069954979568
101325.068043209569
101325.066169021884
101325.06433039339
101325.062525385481
101325.060752122314
101325.059008787764
101325.057293642763
101325.055605041343
101325.053941427963
101325.052301302858
101325.050683182402
101325.049085650287
101325.047507533076
101325.045947989769
101325.044406747678
101325.042884013426
101325.041379862101
101325.039894206784
101325.038426804545
101325.036976823976
101325.035543290971
101325.034126017505
101325.032726084974
101325.031345185926
101325.029984197696
101325.028640766337
101325.027305251759
101325.025957517966
101325.024574298048
101325.023166988976
101325.021844647839
101325.020642548945
101325.019471551132
101325.018304582685
101325.017126710183
101325.015862018641
101325.014546584207
101325.013378931471
101325.012320445821
101325.010986002177
101325.00929511938
101325.00785000631
101325.006668023154
101325.005481821834
101325.004347856651
101325.003172749988
101325.001908143313
101325.000529087905
101325.138466564589
101325.135090565513
101325.13201173734
101325.128771883305
101325.125378713157
101325.122065945368
101325.118927469346
101325.115893433031
101325.112894277321
101325.109935144559
101325.107050317078
101325.1042514445
101325.101527335501
101325.098867302469
101325.096270838738
101325.093741118835
101325.091278045758
101325.088878213181
101325.086538101241
101325.084255513269
101325.082028780933
101325.079855799806
101325.077734000719
101325.075660801478
101325.073633840191
101325.07165088976
101325.069709728035
101325.067808128049
101325.065943920068
101325.064115029338
101325.062319467586
101325.060555314325
101325.058820720951
101325.057113954535
101325.055433478119
101325.053778034897
101325.052146628674
101325.050538312615
101325.04895197085
101325.047386296734
101325.045839718994
101325.044309937963
101325.042794833513
101325.041293038725
101325.039804575179
101325.038329904215
101325.036870212411
101325.035426731294