/*--------------------------------*- C++ -*----------------------------------*\
  =========                 |
  \\      /  F ield         | OpenFOAM: The Open Source CFD Toolbox
   \\    /   O peration     | Website:  https://openfoam.org
    \\  /    A nd           | Version:  8
     \\/     M anipulation  |
\*---------------------------------------------------------------------------*/
FoamFile
{
    version     2.0;
    format      ascii;
    class       surfaceScalarField;
    location    "0.4";
    object      phi;
}
// * * * * * * * * * * * * * * * * * * * * * * * * * * * * * * * * * * * * * //

dimensions      [1 0 -1 0 0 0 0];

internalField   nonuniform List<scalar> 
3490
(
2.06166509460683659e-07
7.12707616564566652e-09
1.98545880257289564e-07
7.62062870191884062e-09
1.91656163810176441e-07
6.88971594714149667e-09
1.84555182565594576e-07
7.10098074424905724e-09
1.77270734121600699e-07
7.28444794218176076e-09
1.70118165901570703e-07
7.15256771539476336e-09
1.63241028887455366e-07
6.8771365035822775e-09
1.56629448568871274e-07
6.61157980056140993e-09
1.50268675577938937e-07
6.36077246898953332e-09
1.44173507766560625e-07
6.09516729065788474e-09
1.3836010833934281e-07
5.81339891008317809e-09
1.32835099271879444e-07
5.52500855419889378e-09
1.27600389395220927e-07
5.23470936746162992e-09
1.2265999055164252e-07
4.94039833450986297e-09
4.63650775571787591e-09
1.18023482287667753e-07
2.14976183963968818e-07
5.44441575753026517e-09
2.1567970693527348e-07
6.9171052283850084e-09
2.15653669265939358e-07
6.91575311552513825e-09
2.15407748514780467e-07
7.34690099579844634e-09
2.14772274291923923e-07
7.91992166531407754e-09
2.13772603196885007e-07
8.15223830686935846e-09
2.12519612753786235e-07
8.13012643696937628e-09
2.11074239568751226e-07
8.0569524658245205e-09
2.0945888612638664e-07
7.97612538741912057e-09
2.07702613943933268e-07
7.85143895064555368e-09
2.05843955555525151e-07
7.67205678251533982e-09
2.03914568114283304e-07
7.45439548488343688e-09
2.01937892673074744e-07
7.21138430007081586e-09
1.99936758526022807e-07
6.94153197449817385e-09
6.63042650009641033e-09
1.97942839275160068e-07
2.15181503326353904e-07
3.55643384651504287e-09
2.16856684138106802e-07
5.24192391318063795e-09
2.18028395956302741e-07
5.7440407946501215e-09
2.19117560709081994e-07
6.25773574246598504e-09
2.2012903395453449e-07
6.90844792040123957e-09
2.20946829149137979e-07
7.33444261096185141e-09
2.21597796878501331e-07
7.47915819604975379e-09
2.22136097009605439e-07
7.51865180909766246e-09
2.22568841083577156e-07
7.5433807806907647e-09
2.22887999531369099e-07
7.53227997562030642e-09
2.23099658580089147e-07
7.4603972158541435e-09
2.23216896326704657e-07
7.33715722699535472e-09
2.23248928096588828e-07
7.17935202239282044e-09
2.23200140366159497e-07
6.99031919832230408e-09
6.76336308649192621e-09
2.23067203271959426e-07
2.14358962561605438e-07
2.49096673604459569e-09
2.15502657175572083e-07
4.0982287934209932e-09
2.16532081292871858e-07
4.71461617474236221e-09
2.17622969155880753e-07
5.16684737875312584e-09
2.18816400216785497e-07
5.71501636462666384e-09
2.2001325969926928e-07
6.13758263302033808e-09
2.21160203248392542e-07
6.33221413820486156e-09
2.22268610949823312e-07
6.41024357177013297e-09
2.23343755302220299e-07
6.46823588203561522e-09
2.24373201788045078e-07
6.50283295631442391e-09
2.25347839960539318e-07
6.48575852631019422e-09
2.26266682569634536e-07
6.41831411061607734e-09
2.27128628043109658e-07
6.31740604416601424e-09
2.27927961246486844e-07
6.19098549095479588e-09
6.03832544650997318e-09
2.2865299838168003e-07
2.13989668288388976e-07
1.79479150823425567e-09
2.15056026973965657e-07
3.03186959824058443e-09
2.16088822605115771e-07
3.68182003502731915e-09
2.17131315849115343e-07
4.12435363224834057e-09
2.18260919742483295e-07
4.58541197756379626e-09
2.19422467704392511e-07
4.97603418712050703e-09
2.20560507815366538e-07
5.19417352509127064e-09
2.21681049164628163e-07
5.28970166626906827e-09
2.2279946372982166e-07
5.3498207420807679e-09
2.23910636233009343e-07
5.39165990818048822e-09
2.25002526047555892e-07
5.39386819750068324e-09
2.26069115222562173e-07
5.35172443293455463e-09
2.27107304520160644e-07
5.27921624632714844e-09
2.28110751930437284e-07
5.18753757799595068e-09
5.08132893023174981e-09
2.29067747941810937e-07
2.13845086782638526e-07
1.24318540250665184e-09
2.14600002293414314e-07
2.27695357485711901e-09
2.15415753404504877e-07
2.86606840984995064e-09
2.16300954992405365e-07
3.23915153575647512e-09
2.1729012518684116e-07
3.59624129444673535e-09
2.18358837127602226e-07
3.90732178516861921e-09
2.19458713847658849e-07
4.09429633544749285e-09
2.20568418801351403e-07
4.17999611668599613e-09
2.21688063795009173e-07
4.23017511801684662e-09
2.22812525679246066e-07
4.26719746868095299e-09
2.2393020089494508e-07
4.27619247809814652e-09
2.25032566789675146e-07
4.24935804995419042e-09
2.26115153247972266e-07
4.19662929619345006e-09
2.27173151917487014e-07
4.12953841004214272e-09
4.0534407453504962e-09
2.28201039599499826e-07
2.13638964107763714e-07
8.9770037531177288e-10
2.14312212398473251e-07
1.60370476249042975e-09
2.15123850688305696e-07
2.05442959269073327e-09
2.16009899115718668e-07
2.35310258495021687e-09
2.16983245921769172e-07
2.62289399529998484e-09
2.18027219321737045e-07
2.86334796397995558e-09
2.19097262558838501e-07
3.02425272334274841e-09
2.20171170169880532e-07
3.10608781937986454e-09
2.21250325703548518e-07
3.15101883702375736e-09
2.22335161080618757e-07
3.182361533992327e-09
2.23417841507725235e-07
3.19351158119031918e-09
2.24489721136068048e-07
3.17747795321750949e-09
2.25545782925404542e-07
3.14056702239315428e-09
2.26582546505334833e-07
3.09277433341409318e-09
3.03999150075012091e-09
2.27595995243289995e-07
2.13652699309490441e-07
5.38474213317003294e-10
2.14224245669103077e-07
1.03215787742387373e-09
2.14920612627732244e-07
1.3580620883621168e-09
2.15705691462815682e-07
1.56802319522584512e-09
2.16582685033456581e-07
1.74589989888130409e-09
2.17542653350999908e-07
1.90337928400881772e-09
2.18557899599302434e-07
2.00900639785173871e-09
2.19602388699210863e-07
2.06159780635673258e-09
2.2066438400786032e-07
2.08902252341433227e-09
2.21738220310625352e-07
2.10852472715047307e-09
2.22815423756056658e-07
2.11630774300303162e-09
2.23886215953245965e-07
2.10668532131641961e-09
2.24943863502850571e-07
2.08291899872826292e-09
2.25984640527293745e-07
2.05199681322105578e-09
2.01792448920251511e-09
2.27006707029566279e-07
2.13540061391979612e-07
2.91885775022928319e-10
2.14053539810369564e-07
5.18678925193797747e-10
2.14747387511833222e-07
6.64213808865767607e-10
2.15555553792552206e-07
7.59856275336903686e-10
2.16455229735405359e-07
8.46223293724198391e-10
2.1743259260991477e-07
9.2601602032953286e-10
2.18457518909418944e-07
9.84079503835512654e-10
2.19501666610999946e-07
1.01745002266566079e-09
2.20553975506023855e-07
1.03671351365421796e-09
2.21612645627285095e-07
1.04985438042886039e-09
2.22672809777216462e-07
1.05614335085995461e-09
2.2372637268353751e-07
1.05312200561376235e-09
2.24766852868382872e-07
1.04243833634093556e-09
2.25790999977442599e-07
1.02784919873306812e-09
1.01179193932322485e-09
2.26797132001637968e-07
2.13582536028543421e-07
2.82054285154772606e-12
2.14098822538820481e-07
2.39188954309434482e-12
2.14762605889104516e-07
4.29863351857487646e-13
2.15522129703736738e-07
3.31806205206835136e-13
2.16368188344452555e-07
1.63807630613560534e-13
2.17294447598165185e-07
-2.43310546730000563e-13
2.18278359771229424e-07
1.67221662915132706e-13
2.19295260646185179e-07
5.4859003403879885e-13
2.20331529852733693e-07
4.43579550917817784e-13
2.21381583909037995e-07
-1.99662679965506156e-13
2.22437946454588725e-07
-2.19201767338167612e-13
2.23491054994493929e-07
1.30296064643669768e-14
2.24533270282114715e-07
2.22569804061525789e-13
2.25560818680943358e-07
3.00304496292389506e-13
1.1367875303853071e-13
2.26572496404312117e-07
2.13588861021066126e-07
-2.92569727342411267e-10
2.14109662465778992e-07
-5.1840992904267324e-10
2.14773635708200688e-07
-6.63543680269025626e-10
2.15533156938741454e-07
-7.59189647480148464e-10
2.16378916474532945e-07
-8.45595773444635392e-10
2.17304059600288491e-07
-9.25387245084174082e-10
2.18287805203440648e-07
-9.83579219983509191e-10
2.19305499204701474e-07
-1.01714592072739923e-09
2.20342234818195556e-07
-1.03629234095032261e-09
2.21391281574410378e-07
-1.04924738107297483e-09
2.22446506750116802e-07
-1.05544533817775692e-09
2.23498979977770933e-07
-1.05246072845014482e-09
2.24541044566102082e-07
-1.0418424790212289e-09
2.25568547459769825e-07
-1.02720303157113671e-09
-1.01100690269169498e-09
2.2657966763355054e-07
2.13540505180419815e-07
-5.39601877835253631e-10
2.14055080373243393e-07
-1.03298549213837142e-09
2.14749403302645658e-07
-1.3578669380021967e-09
2.15558104614068377e-07
-1.5678912441917119e-09
2.16458167916090262e-07
-1.74565933810428288e-09
2.17435635052270021e-07
-1.90285493998844468e-09
2.18460720742141499e-07
-2.00866524769064779e-09
2.19504929556772477e-07
-2.06135552395902031e-09
2.2055734919860485e-07
-2.08871277256812495e-09
2.21616012777906332e-07
-2.10791169996218682e-09
2.22676209993145117e-07
-2.11564326047561809e-09
2.23729758506712369e-07
-2.1060097840827047e-09
2.24770188292964808e-07
-2.08227275723251421e-09
2.25794301805537568e-07
-2.05131701306545817e-09
-2.01707257070973091e-09
2.26800367026378327e-07
2.1365210180601835e-07
-8.98230425507731567e-10
2.14223334619147963e-07
-1.60421868402297014e-09
2.14919954714274363e-07
-2.05448739580401675e-09
2.1570503531241895e-07
-2.35297220619853941e-09
2.16582112676876425e-07
-2.62273710033679847e-09
2.1754236464541801e-07
-2.8631074759556985e-09
2.18557722974750893e-07
-3.02402442389255553e-09
2.1960223669912897e-07
-3.10586923749489269e-09
2.20664258031304067e-07
-3.15073401747281812e-09
2.21738268183679772e-07
-3.18192229037022637e-09
2.22815620192292837e-07
-3.19299582288373114e-09
2.23886522128192651e-07
-3.17691223792310871e-09
2.24944211491225247e-07
-3.13996260994203348e-09
2.25984971921309844e-07
-3.09207791633585849e-09
-3.03909986456886654e-09
2.27006998752171909e-07
2.13638676946102464e-07
-1.24342817027145031e-09
2.14311687069761551e-07
-2.27722919276211479e-09
2.15123338805837601e-07
-2.86613951500901317e-09
2.16009421790199661e-07
-3.23905558383010922e-09
2.16982787251372459e-07
-3.59610298818598413e-09
2.1802684223687187e-07
-3.90716296374545348e-09
2.19096936377514828e-07
-4.09411911127093725e-09
2.20170853806699345e-07
-4.1797868960006189e-09
2.21250023856402617e-07
-4.22990424204531399e-09
2.22334934660394701e-07
-4.26683347394610791e-09
2.23417693697337576e-07
-4.27575533348595232e-09
2.24489635699667657e-07
-4.24885472350439223e-09
2.25545725881125423e-07
-4.1960532681108999e-09
2.26582494419336871e-07
-4.12884692329004037e-09
-4.05256033848164772e-09
2.27595954429574758e-07
2.13844966630879565e-07
-1.79491401256816381e-09
2.14599752712542594e-07
-3.03201566789235536e-09
2.1541547829646353e-07
-3.68186549510972811e-09
2.16300707154983254e-07
-4.12428484801888015e-09
2.17289900303325824e-07
-4.58529656402901422e-09
2.18358642458819406e-07
-4.97590557629486881e-09
2.19458546020844608e-07
-5.19402312274733199e-09
2.2056826841287222e-07
-5.28950961207150467e-09
2.21687935308717988e-07
-5.3495714325761127e-09
2.22812443590898829e-07
-5.39134213484176471e-09
2.23930171462978818e-07
-5.39348364522837906e-09
2.25032584105805533e-07
-5.35126782575216939e-09
2.26115202609182683e-07
-5.27867223550691992e-09
2.27173225921931691e-07
-5.186870698355338e-09
-5.08048544747567297e-09
2.28201150566827653e-07
2.13989605344671572e-07
-2.49102618639438879e-09
2.1505589266327293e-07
-4.0983033848606944e-09
2.16088665933334566e-07
-4.71463916816016833e-09
2.17131178402703548e-07
-5.16679772796643396e-09
2.18260807622024243e-07
-5.71492620560886261e-09
2.19422378453098741e-07
-6.13747683956468273e-09
2.20560441518844204e-07
-6.33208660776535027e-09
2.21681007959889245e-07
-6.41007641824232974e-09
2.22799453809873861e-07
-6.46801763408631664e-09
2.23910669441562685e-07
-6.50255815502743436e-09
2.25002608654251875e-07
-6.4854232836425695e-09
2.26069248204730309e-07
-6.4179078215968325e-09
2.27107485906570161e-07
-6.31691039073602297e-09
2.28110985595564346e-07
-6.19037084600797204e-09
-6.0375516457537678e-09
2.29068051333000915e-07
2.14358933625242971e-07
-3.55646425952614451e-09
2.15502590474615764e-07
-5.24196063540923933e-09
2.16531999316764586e-07
-5.74404841593902898e-09
2.17622899613674517e-07
-6.25769843657630574e-09
2.18816352512302307e-07
-6.90837952182251093e-09
2.20013233005193686e-07
-7.33435775187026405e-09
2.21160199425665274e-07
-7.47905343685301799e-09
2.22268636709126633e-07
-7.51851408820673545e-09
2.2334381953666869e-07
-7.54320084054061442e-09
2.2437331452792024e-07
-7.53205354313931163e-09
2.25348009851814839e-07
-7.46011902674076415e-09
2.26266917629937967e-07
-7.33681603686898659e-09
2.27128937458179661e-07
-7.1789306662325927e-09
2.27928359825950277e-07
-6.98979366617401517e-09
-6.76270340737880393e-09
2.28653511129040311e-07
2.15181486932561506e-07
-5.44442967998517176e-09
2.16856647990682758e-07
-6.91712209859876188e-09
2.18028352734349777e-07
-6.9157535679158773e-09
2.19117529288517186e-07
-7.34687540158629207e-09
2.20129024867143342e-07
-7.91987551533119622e-09
2.20946845235734874e-07
-8.15217853502787439e-09
2.2159784271649525e-07
-8.13005132306700389e-09
2.22136182176880355e-07
-8.0568539423530043e-09
2.225689779340662e-07
-7.97599699035752131e-09
2.22888201406618449e-07
-7.85127741829560498e-09
2.23099939732280599e-07
-7.67185777204510378e-09
2.2321727368422762e-07
-7.45415041914103886e-09
2.23249423627332971e-07
-7.21108105075158644e-09
2.23200782978252292e-07
-6.94115346617296919e-09
-6.62995191434975972e-09
2.23068031030165175e-07
2.14976175363244817e-07
-7.12708139404648685e-09
2.15679687669279522e-07
-7.62063481170606508e-09
2.15653648096257486e-07
-6.88971440393479885e-09
2.15407740318115402e-07
-7.10096803444368647e-09
2.14772290124010076e-07
-7.28442573260692054e-09
2.13772649840870215e-07
-7.15253866111922544e-09
2.12519698254593265e-07
-6.87710014192967668e-09
2.1107437638477164e-07
-6.61153247197729611e-09
2.09459090208458281e-07
-6.36071121296517063e-09
2.07702903173490171e-07
-6.09509078916894352e-09
2.05844350262130306e-07
-5.81330527825021741e-09
2.03915091727718029e-07
-5.52489231386978592e-09
2.01938577094087381e-07
-5.23456685631190204e-09
1.99937643945708582e-07
-4.94022076427638459e-09
-4.63628406725522383e-09
1.97943975646591128e-07
2.06166504326479846e-07
1.98545869108227131e-07
1.91656154296321674e-07
1.84555185852041331e-07
1.77270759709463466e-07
1.70118220640809798e-07
1.63241120095430316e-07
1.56629587224814539e-07
1.50268875612808859e-07
1.44173784417939915e-07
1.38360478724969401e-07
1.32835585986533784e-07
1.27601018695656928e-07
1.22660797489631783e-07
1.18024512973306412e-07
1.1447810573360503e-07
3.54537614849679406e-09
1.110755496063506e-07
3.40255572103553815e-09
1.07824038549568177e-07
3.2515106514338426e-09
1.04731401883692611e-07
3.09263626051098759e-09
1.01794562854511287e-07
2.93683862415210052e-09
9.90068701188791544e-08
2.78769233109415373e-09
9.63636607911496567e-08
2.64320892470440461e-09
9.38613259313320321e-08
2.50233445798402229e-09
9.14953697608438259e-08
2.36595576973944756e-09
8.92603051092432036e-08
2.23506425238336754e-09
8.71504725593536926e-08
2.10983215279578424e-09
8.51604380633561754e-08
1.99003410092472637e-09
8.32847903836701779e-08
1.87564728810870442e-09
8.1517962922280241e-08
1.76682707020721884e-09
7.9854326236636719e-08
1.66363629141191363e-09
7.82883509882053792e-08
1.56597483901929009e-09
7.68146626056769785e-08
1.47368792161946511e-09
7.54280154378398871e-08
1.38664656132269214e-09
7.41232838827437924e-08
1.30473057805580193e-09
7.28954927518807632e-08
1.22778931788875883e-09
7.17398514577580134e-08
1.15563779665995333e-09
7.06517674599870039e-08
1.08807722833050436e-09
6.96268450577921834e-08
1.0249092781705805e-09
6.86608844035653914e-08
9.65935508596458064e-10
6.77498837353499263e-08
9.10953282571862799e-10
6.68900392862589217e-08
8.59756796253671761e-10
6.60777384673257525e-08
8.12141828146334708e-10
6.5309546485679376e-08
7.67909376709766605e-10
6.45821874897419751e-08
7.26866921715873502e-10
6.38925196188636099e-08
6.88828797294974142e-10
6.32375019366195093e-08
6.53616935105327449e-10
6.26141515699250325e-08
6.21061753462269675e-10
6.20194909460885387e-08
5.91002288205960118e-10
6.14504876148575015e-08
5.63284634169361578e-10
6.09039942883687988e-08
5.3775632987215324e-10
6.03766942974604749e-08
5.14245080982618873e-10
5.98649311318469134e-08
4.92512402322573159e-10
5.93670609932980779e-08
4.72445395582162909e-10
5.88810449145510589e-08
4.53854396340546555e-10
5.84040203822178052e-08
4.36388540955961198e-10
5.79368910715931235e-08
4.20455146903666428e-10
5.7476762660640736e-08
4.05457464886056742e-10
5.70232000393957585e-08
3.91043125738339646e-10
5.65767960299881746e-08
3.77129357434476492e-10
5.61378756858709921e-08
3.6378929336967153e-10
5.57080173140391729e-08
3.50622570346377898e-10
5.52881635399255094e-08
3.374731242615164e-10
5.48799572692174069e-08
3.24969692794082396e-10
5.44850663667203824e-08
3.12209011398540819e-10
5.4103504451825175e-08
2.99165861704634652e-10
5.37371614935768733e-08
2.86149097977412048e-10
5.33858263430220226e-08
2.73448698452181004e-10
5.30507597586471592e-08
2.59846055759041393e-10
5.27328870105629708e-08
2.45526553947621107e-10
5.24315689584399322e-08
2.31110089326350291e-10
5.21447381335379707e-08
2.18283261134767558e-10
5.18597421781177803e-08
2.18018828855148141e-10
5.15404584337021944e-08
2.54022207352835706e-10
5.11258431058652253e-08
3.5148458665247718e-10
5.06418718169096562e-08
4.22010667312572918e-10
5.04921230569064288e-08
8.45184189515061047e-11
5.0697203615617831e-08
-2.78032065438479672e-10
5.10233999513575132e-08
-4.0520023047267261e-10
5.14392106587554521e-08
-4.98726157744832835e-10
5.16325526628435609e-08
-2.69875919223094313e-10
5.12175103336061349e-08
3.46798146369460308e-10
5.05893727328522542e-08
5.55776013672958744e-10
4.99916296735329779e-08
5.29268134618849482e-10
4.94757961151724995e-08
4.50179793621156721e-10
4.90898292395698621e-08
3.21767881883941878e-10
4.88339565749520398e-08
1.9268342995377958e-10
4.86659858830495416e-08
1.06664941906932843e-10
4.84506162825691968e-08
1.56021305468914206e-10
4.80355748559667864e-08
3.54136791336467805e-10
3.0646083621446057e-10
1.96340155704112763e-07
5.14805931423971974e-09
1.94710081384536921e-07
5.03262963512264023e-09
1.93067492370360394e-07
4.89409925879472826e-09
1.91434694394965503e-07
4.72543383145852186e-09
1.89819782426334888e-07
4.55175018781988437e-09
1.88222190701109053e-07
4.38528365270642113e-09
1.86643003890569829e-07
4.22239533218887572e-09
1.85086692541213994e-07
4.05864540563316741e-09
1.8355735124787552e-07
3.89529666287473179e-09
1.82056934941232513e-07
3.73548016116552467e-09
1.80586275396844854e-07
3.5804913007972614e-09
1.79146196804867122e-07
3.43011229914334629e-09
1.77737623612979912e-07
3.28422008822929897e-09
1.76361205200939908e-07
3.14324509230426393e-09
1.75017169244133307e-07
3.00767186220370576e-09
1.73705459240940431e-07
2.87768445686781438e-09
1.72425882689348666e-07
2.75326408846239272e-09
1.71178141525385958e-07
2.63438733597165583e-09
1.69961810966932416e-07
2.52106072551509054e-09
1.68776339467041223e-07
2.41326035531160641e-09
1.67621079719822268e-07
2.31089696561152261e-09
1.66495319937423911e-07
2.21383621135765128e-09
1.65398298196825025e-07
2.12192978785113162e-09
1.64329208957099613e-07
2.03502269552802659e-09
1.63287211184345335e-07
1.95294747727648292e-09
1.62271438356822646e-07
1.87552327599180275e-09
1.61281006497722564e-07
1.80256241189014555e-09
1.60315018562843999e-07
1.73387744353792591e-09
1.59372566193161491e-07
1.66928472802863838e-09
1.58452729963248401e-07
1.60860582787677267e-09
1.57554578188669166e-07
1.5516690292751438e-09
1.56677163967761536e-07
1.49831114132566041e-09
1.55819520706130189e-07
1.44837804473703659e-09
1.54980657171967517e-07
1.4017223475828088e-09
1.54159552415131392e-07
1.35819645054857091e-09
1.5335514029897541e-07
1.31764029282440392e-09
1.52566255833773166e-07
1.27987773926182174e-09
1.51791791792349635e-07
1.24474198828064922e-09
1.51030800312926065e-07
1.2120022980561432e-09
1.50281673366722068e-07
1.18136326710372121e-09
1.49543594252743132e-07
1.15257277355694779e-09
1.4881611437457273e-07
1.1256927687173967e-09
1.480980571343601e-07
1.1002003760820241e-09
1.47388503954807481e-07
1.07584476004911487e-09
1.46686342596524161e-07
1.05217112997394605e-09
1.45993647932184528e-07
1.02906653611352926e-09
1.45307468453718753e-07
1.00655675056986466e-09
1.44625488253811341e-07
9.83589511406590441e-10
1.43956177263770482e-07
9.60745702799756038e-10
1.43294421533907106e-07
9.37838826701377114e-10
1.42635993611697133e-07
9.15264456533374888e-10
1.41986663771406995e-07
8.9285488089269683e-10
1.41348825768307724e-07
8.72130507749171205e-10
1.40707840599232314e-07
8.54227347189844471e-10
1.40055997469495311e-07
8.42104384164434888e-10
1.39402010031439748e-07
8.41422551784320462e-10
1.38728599936534444e-07
8.61157455134363897e-10
1.38026530955136386e-07
9.12251886349640863e-10
1.37364776445079624e-07
9.66270197015260079e-10
1.37044058221834241e-07
7.08976874108646925e-10
1.36801856806068227e-07
2.89229549791775225e-10
1.3635779559262547e-07
1.20376508680941907e-10
1.35824416228394877e-07
8.51118221501383435e-11
1.35126432170822002e-07
1.62510573562198891e-10
1.34117013333102857e-07
6.99229286917032525e-10
1.33362095655695749e-07
1.05036069629967773e-09
1.32852936998806598e-07
1.00168804614893501e-09
1.32380861887218465e-07
9.31660908902292643e-10
1.31948496446521264e-07
8.27113224910268011e-10
1.31498078295711612e-07
7.37757345833525921e-10
1.30959430931962902e-07
6.9026930612540677e-10
1.30318339533747543e-07
6.94704495249018748e-10
1.29663585057166934e-07
7.38143789180952564e-10
1.29294144454812765e-07
6.68255296155700413e-10
3.74659336393747387e-10
2.22924844760963451e-07
5.29041742008566789e-09
2.22745611367579682e-07
5.21186262416882435e-09
2.22524243515055717e-07
5.11546670578204842e-09
2.2226425850179372e-07
4.9854184403970798e-09
2.21972494699089262e-07
4.84351358596758387e-09
2.21652233469666776e-07
4.70554447879058581e-09
2.21305145772680109e-07
4.56948262619524438e-09
2.20933878928986818e-07
4.42991184854740118e-09
2.20541662269339598e-07
4.28751292189202262e-09
2.20131136035676251e-07
4.14600599654350401e-09
2.19704344238323172e-07
4.00728270283504479e-09
2.19263186063583543e-07
3.87127008028191882e-09
2.18809614531878525e-07
3.73779122920622432e-09
2.18345491611410267e-07
3.60736762337972005e-09
2.17872444821015936e-07
3.48071826637881865e-09
2.17391884342445383e-07
3.35824455260444969e-09
2.16905084137914787e-07
3.24006391353563207e-09
2.16413216052256251e-07
3.12625504492478743e-09
2.15917333669649164e-07
3.01694273327209788e-09
2.15418362835160556e-07
2.91223081497533719e-09
2.14917114268670494e-07
2.81214515179408212e-09
2.1441430193432984e-07
2.71664815175534835e-09
2.13910554528770732e-07
2.62567676905696184e-09
2.1340642005305596e-07
2.5391566847465086e-09
2.12902370378099548e-07
2.45699654623488833e-09
2.12398808237618272e-07
2.37908459317255363e-09
2.11896074611709179e-07
2.30529481955509716e-09
2.11394454679492821e-07
2.23549546800156004e-09
2.10894182595775983e-07
2.16955371859805692e-09
2.10395446188480265e-07
2.10733714319046081e-09
2.09898391985021424e-07
2.04871483548401127e-09
2.09403130535589925e-07
1.99355883005617657e-09
2.08909741963872377e-07
1.94174432330691772e-09
2.08418281619969878e-07
1.8931470972407353e-09
2.07928784628429697e-07
1.84763755148901329e-09
2.07441265857066654e-07
1.80507290265192424e-09
2.06955718555958095e-07
1.76529477165236665e-09
2.06472134585237967e-07
1.72813266216339759e-09
2.05990475225539763e-07
1.69337579181940864e-09
2.05510655780549635e-07
1.66079722426253544e-09
2.05032573282647794e-07
1.63013644067092866e-09
2.04556311538041269e-07
1.60116754697606592e-09
2.04081684820220152e-07
1.57360085941168571e-09
2.03609267449944189e-07
1.54715794400584461e-09
2.03138631257277167e-07
1.52139656115476184e-09
2.02669651156079034e-07
1.49611649774731683e-09
2.02202893603196762e-07
1.47080400598847223e-09
2.01738299539353367e-07
1.44519170820615856e-09
2.01276206231157291e-07
1.41915353969402719e-09
2.00817303404252302e-07
1.39264353510219774e-09
2.00363127938975558e-07
1.36540326972318003e-09
1.99913495458456947e-07
1.33714182102639304e-09
1.99469514814216359e-07
1.30862199757020037e-09
1.99036949007304082e-07
1.28135028546759822e-09
1.98615122626667189e-07
1.25653241197692794e-09
1.9820967150738467e-07
1.23716139699731424e-09
1.97838812396317592e-07
1.22418719473547995e-09
1.97529285144726931e-07
1.21168674396255965e-09
1.97297961021959424e-07
1.1838674367726065e-09
1.96865052172738936e-07
1.13197899602084823e-09
1.96144056064764672e-07
1.00211301766196115e-09
1.95397538376192166e-07
8.56289463839360592e-10
1.94625358578972443e-07
8.47929993486501601e-10
1.93916032042961178e-07
8.6003233525514183e-10
1.93634956246459482e-07
9.64894851836983741e-10
1.93512415787358883e-07
1.15175719574341201e-09
1.93290888986309381e-07
1.20633505833680274e-09
1.92990840023463196e-07
1.21151062945974642e-09
1.92613702542771286e-07
1.17921705270429194e-09
1.92209935797038814e-07
1.12241353298540243e-09
1.91802704232500961e-07
1.07937797459369118e-09
1.91388527201722404e-07
1.0826848642398879e-09
1.91002584455620458e-07
1.09548923306289201e-09
1.90693522586374003e-07
9.57376790327732295e-10
6.75692522148749631e-10
2.29195970384831056e-07
4.74744501206813814e-09
2.29721106629788912e-07
4.68672597366125364e-09
2.3021690809775635e-07
4.61966483298090618e-09
2.30675848156840166e-07
4.52647797689665653e-09
2.31099948731674466e-07
4.41941260797536584e-09
2.3149233562779045e-07
4.31315718053012214e-09
2.3185335982193336e-07
4.20845802942093581e-09
2.32182829737411502e-07
4.10044153276685044e-09
2.32481775334576884e-07
3.988566926567053e-09
2.3275189099551686e-07
3.87588993766945593e-09
2.3299464795999786e-07
3.76452534296509296e-09
2.33211281790833605e-07
3.65463585570921468e-09
2.33403054037125983e-07
3.54601859159349298e-09
2.3357131558415815e-07
3.43910568772876362e-09
2.33717401050180614e-07
3.33463241507385296e-09
2.33842558776638179e-07
3.23308644313881078e-09
2.33947975103146365e-07
3.13464720820884617e-09
2.34034805820784665e-07
3.03942395170570459e-09
2.34104171270938207e-07
2.94757691042508476e-09
2.34157138808139068e-07
2.85926290958130914e-09
2.34194716355921725e-07
2.77456723925865341e-09
2.34217856138936267e-07
2.6935080062418982e-09
2.34227458206472292e-07
2.61607434178182887e-09
2.34224369646463865e-07
2.54224488515845125e-09
2.34209383005772492e-07
2.47198282182722473e-09
2.34183236963825406e-07
2.4052302577474535e-09
2.34146618790408295e-07
2.34191259146440001e-09
2.34100166930815522e-07
2.28194687913278811e-09
2.34044473342492872e-07
2.22524677531092577e-09
2.33980086176733903e-07
2.17172363155536742e-09
2.33907513284848828e-07
2.12128680953117169e-09
2.33827226434177461e-07
2.07384436422783791e-09
2.33739665870752996e-07
2.02930293000571461e-09
2.33645244605191313e-07
1.98756539446169387e-09
2.33544351324417317e-07
1.9485262955302867e-09
2.33437350762872018e-07
1.91206654572004564e-09
2.33324584743721298e-07
1.87805031947117012e-09
2.3320637760270613e-07
1.8463241485888954e-09
2.3308302150701446e-07
1.81670883826083542e-09
2.32954788654256701e-07
1.78899702380286948e-09
2.32821928549520984e-07
1.76295225792960491e-09
2.32684692624673262e-07
1.73833145906336543e-09
2.32543309063854561e-07
1.71488114205070946e-09
2.32398049192156922e-07
1.69227980164962707e-09
2.3224909607358716e-07
1.67020699596531349e-09
2.32096661613922629e-07
1.64834139011682262e-09
2.31940849373971988e-07
1.62631432973944431e-09
2.31781851911187136e-07
1.60383912756148021e-09
2.31619912778470981e-07
1.58066814981589287e-09
2.31455398088473642e-07
1.55661953406927048e-09
2.31288517411859019e-07
1.53159672704562836e-09
2.31118935345350098e-07
1.5059505533721328e-09
2.30945622447951509e-07
1.48089605455322013e-09
2.30767506714106955e-07
1.45865392395793041e-09
2.30580821413054695e-07
1.44212780997281432e-09
2.30382505401269428e-07
1.4339148826935326e-09
2.30172404267376473e-07
1.43270054834444701e-09
2.29958325728650869e-07
1.42366629401547624e-09
2.29776224045190502e-07
1.3641254781921627e-09
2.29704284568193937e-07
1.20176711543544126e-09
2.29687789032601597e-07
1.01577294474246754e-09
2.29596884339500537e-07
9.45025806072833836e-10
2.29500768573126358e-07
9.41370171719480977e-10
2.29270386669726702e-07
1.08702047122138559e-09
2.28932352741876356e-07
1.29999434633133334e-09
2.28631940397891397e-07
1.44842325388008634e-09
2.2836394779636501e-07
1.46940858328671001e-09
2.28124952826698463e-07
1.44595169538103078e-09
2.27921447426140608e-07
1.377321028372798e-09
2.27718058268958795e-07
1.32008053430165035e-09
2.27527984690232927e-07
1.26411017145546919e-09
2.27406225873129781e-07
1.1982372767041318e-09
2.27395102856517366e-07
1.09850787851016586e-09
2.27405175471363873e-07
9.41176421157359915e-10
7.30647093895090435e-10
2.29815400986940495e-07
3.99979156243237569e-09
2.30552544729015026e-07
3.94958182714485047e-09
2.31276971297759597e-07
3.89523785995330138e-09
2.31978639083696228e-07
3.82480978635196501e-09
2.32654704707809344e-07
3.74334658024152843e-09
2.33306969508554749e-07
3.66089197816355553e-09
2.33935922470904148e-07
3.57950466751510251e-09
2.34540516275872252e-07
3.49584732780259261e-09
2.35120359962641439e-07
3.40872284235556639e-09
2.35676021958811063e-07
3.32022754529160675e-09
2.36208149648226775e-07
3.23239725861913893e-09
2.36717145954000832e-07
3.14563915817462238e-09
2.37203413340454913e-07
3.0597508143419492e-09
2.37667543225820166e-07
2.97497541537749746e-09
2.38110260943127375e-07
2.89191431282390338e-09
2.38532298401941675e-07
2.81104860209786951e-09
2.38934389778383914e-07
2.73255545281321078e-09
2.39317289634151506e-07
2.65652372065438948e-09
2.39681775826729799e-07
2.58309034663907225e-09
2.40028632309535406e-07