/*--------------------------------*- C++ -*----------------------------------*\
  =========                 |
  \\      /  F ield         | OpenFOAM: The Open Source CFD Toolbox
   \\    /   O peration     | Website:  https://openfoam.org
    \\  /    A nd           | Version:  8
     \\/     M anipulation  |
\*---------------------------------------------------------------------------*/
FoamFile
{
    version     2.0;
    format      ascii;
    class       volScalarField;
    location    "0.4";
    object      rho;
}
// * * * * * * * * * * * * * * * * * * * * * * * * * * * * * * * * * * * * * //

dimensions      [1 -3 0 0 0 0 0];

internalField   nonuniform List<scalar> 
1800
(
0.853174344512543481
0.853174059809128971
0.853173913671815942
0.853173891702886045
0.853173869663503837
0.853173816950357433
0.853173757734736249
0.853173708971991185
0.853173668299500587
0.85317362801800356
0.853173585664541489
0.853173543047971106
0.853173501830051029
0.853173461902758334
0.8531734224914721
0.853174096227017786
0.853174001416173944
0.853173909894372251
0.853173873239893243
0.853173847498994165
0.853173803699468714
0.853173751132525138
0.853173704509573749
0.853173664705318302
0.853173625617617448
0.853173584541691121
0.853173542933218454
0.853173502537506012
0.853173463489576012
0.853173425150672848
0.853174087675050874
0.853174015635531968
0.853173925263038035
0.853173873581519082
0.853173844495432099
0.853173806197582318
0.853173757040066594
0.853173709973714223
0.853173669130506074
0.853173630058273291
0.853173589520398123
0.8531735482876871
0.853173508048714391
0.853173469179374311
0.853173431341166966
0.853173983820600723
0.853173945489026586
0.853173890773957555
0.853173851629485558
0.853173824380337287
0.853173790500690421
0.853173747099415736
0.853173703419601637
0.853173664080804195
0.853173626418860187
0.853173587519694188
0.853173547690183054
0.853173508487989896
0.85317347053206527
0.853173433679388804
0.853173974281515424
0.853173950143276461
0.853173903079334939
0.853173858426104381
0.853173824470840891
0.853173790406504651
0.853173749970199458
0.853173707568580131
0.853173667700100724
0.853173629617388851
0.853173591023411504
0.85317355167931952
0.853173512751983498
0.853173474945059018
0.853173438256299321
0.853173924746008505
0.85317390483438249
0.853173869595078682
0.853173835477786247
0.853173807039096177
0.85317377707083708
0.853173740925205148
0.853173701627999326
0.853173663318884667
0.853173626334156054
0.853173589024577961
0.853173550904826494
0.853173512842217208
0.853173475601976983
0.853173439305422443
0.853173918382742813
0.853173906782527136
0.8531738787998282
0.85317384428590326
0.853173811529572168
0.853173779160267598
0.853173743362150905
0.853173704790383014
0.853173666313565615
0.853173628848184484
0.85317359144248206
0.853173553510311988
0.853173515574293662
0.853173478328096202
0.853173441983832936
0.853173894633549423
0.853173881698214287
0.853173855618815424
0.853173825675796915
0.853173797318366067
0.853173768465979365
0.853173735781096343
0.853173699685260134
0.85317366267508199
0.853173626090946935
0.853173589571154078
0.853173552528183499
0.853173515264627702
0.853173478429275378
0.853173442321374598
0.853173893837192887
0.853173885602721671
0.853173864558084194
0.853173835497860633
0.853173804676795378
0.853173773305010985
0.853173739497171901
0.853173702911200982
0.853173665396782299
0.853173628317560273
0.853173591441225176
0.853173554264731515
0.853173516900479489
0.853173479921767841
0.853173443675835141
0.853173885088455042
0.853173874759914352
0.853173851929161953
0.853173823410119159
0.853173794910693117
0.853173766079107554
0.853173734319060628
0.853173699260916463
0.853173662733082594
0.85317362631491811
0.853173590044097763
0.853173553408718255
0.853173516416552036
0.853173479680893299
0.853173443584579805
0.853173884690470397
0.853173874433447943
0.853173851664959404
0.853173823148853261
0.853173794634611071
0.853173765867787703
0.853173734082329771
0.853173698897636501
0.853173662392575305
0.853173626054955725
0.853173589779678054
0.853173553025747489
0.853173516008204347
0.853173479274615398
0.853173443196710846
0.853173893696650976
0.853173885447424118
0.853173864361906786
0.853173835271366698
0.853173804448017825
0.853173773101701949
0.853173739293605848
0.853173702747730522
0.853173665237416112
0.853173628102781523
0.853173591213292393
0.853173553993093692
0.853173516616576366
0.853173479642727273
0.853173443408560161
0.853173894591477633
0.853173881676378976
0.853173855621845112
0.853173825691222687
0.85317379734238763
0.853173768501894858
0.853173735789871435
0.853173699560478394
0.853173662549223666
0.853173626086402237
0.853173589584904524
0.853173552523086465
0.853173515244546876
0.853173478402593721
0.853173442295093398
0.853173918354190097
0.853173906764433054
0.853173878798056617
0.853173844294755401
0.853173811540845928
0.853173779168810209
0.853173743347538593
0.853173704720878501
0.853173666241596074
0.853173628823667762
0.853173591435006151
0.853173553498637549
0.853173515555362805
0.853173478304778965
0.853173441959829582
0.853173924725876165
0.853173904819323425
0.853173869589131439
0.853173835478692411
0.853173807040152887
0.853173777065733274
0.853173740904011879
0.853173701582228383
0.85317366327062083
0.853173626304823407
0.85317358900585949
0.853173550886354382
0.853173512820476265
0.853173475577318929
0.853173439279389267
0.853173974264965329
0.853173950129708314
0.853173903071032913
0.853173858421485298
0.853173824465082498
0.853173790394735065
0.853173749947667259
0.853173707533748105
0.85317366766294489
0.853173629587583693
0.853173590999215525
0.853173551656066009
0.853173512727136596
0.853173474918077601
0.853173438227526004
0.85317398380628573
0.853173945476216833
0.853173890763802789
0.853173851620924739
0.853173824370196288
0.853173790485603378
0.853173747077012767
0.853173703390083915
0.853173664049063918
0.853173626389586937
0.853173587492897179
0.853173547663848342
0.853173508460529528
0.853173470502741282
0.853173433647988477
0.853174087661636937
0.853174015622959692
0.853173925251718646
0.853173873570503782
0.853173844482563282
0.853173806180650196
0.853173757017815948
0.853173709946660308
0.85317366910122705
0.853173630029225971
0.853173589491993734
0.853173548259073877
0.853173508018900795
0.853173469147612606
0.853173431306964658
0.853174096214104893
0.853174001403624205
0.853173909882249171
0.853173873227414337
0.853173847484618997
0.853173803681632426
0.853173751110453793
0.853173704483717876
0.853173664677210009
0.853173625588716233
0.853173584512416316
0.853173542903174931
0.853173502506067605
0.853173463456086911
0.853173425114560624
0.853174344499856074
0.853174059796609874
0.853173913659324157
0.853173891689623654
0.853173869648287009
0.853173816931968032
0.853173757712601843
0.853173708946466491
0.853173668271672403
0.853173627988954242
0.853173585634690479
0.853173543017095359
0.85317350179755036
0.85317346186796994
0.853173422453706864
0.853173391659145297
0.853173367550057571
0.853173340048741347
0.853173309377664113
0.853173279567046805
0.853173252137353622
0.853173226045121247
0.853173200262032361
0.853173174770937015
0.853173149968567079
0.853173126013333061
0.853173102791975446
0.853173080174171816
0.853173058122125849
0.853173036613100511
0.853173015505009791
0.853172994359978842
0.853172972073503177
0.853172946086577011
0.853172911040691928
0.853172857158067455
0.853172767808576649
0.853172609503954016
0.853172320602072265
0.85317179032939916
0.85317082384288101
0.8531690860891461
0.853166014167516917
0.853160684678297754
0.853151619580653553
0.853136512372925537
0.853111857481602343
0.853072471727050141
0.85301090983957617
0.852916793463519451
0.852776081971825195
0.852570521566041184
0.852283336562933869
0.851915314999504347
0.851457476713813999
0.850903497994242697
0.850285100469774235
0.849547313022505635
0.848748089136712625
0.847867714119720284
0.846958352013268634
0.846008378938525873
0.845072772893570301
0.844155888763297391
0.843282735251553284
0.84245310511590521
0.841681796046592545
0.840960007329475401
0.840309471667758046
0.839705996351860939
0.839136956546308821
0.838599668281940991
0.838102368494746841
0.8376275327420315
0.837184457947419802
0.836739088515770391
0.836221450890176965
0.835643712682804574
0.835005556147099259
0.834391332197618407
0.833884928826995053
0.833375449646711175
0.832857517785801527
0.83238314129992319
0.831937406991493322
0.831509558228755052
0.831107273028214966
0.830740412469040179
0.830316327666545839
0.829692293879067067
0.853173394019248188
0.853173369095742484
0.85317334185749405
0.853173311836919912
0.853173282371676778
0.85317325500428387
0.853173228962047281
0.853173203274316894
0.853173177846456743
0.853173153037701026
0.853173129035296407
0.853173105759414629
0.853173083085263739
0.853173060977655662
0.853173039455147331
0.853173018515063886
0.853172998106800806
0.853172978129068449
0.853172958391570813
0.853172938510879053
0.853172917759699723
0.853172894989879915
0.853172867923057687
0.853172832352527943
0.853172780727843638
0.85317269973367571
0.853172566328330606
0.853172341415578073
0.853171959989061368
0.853171316189685114
0.853170241288671583
0.853168472230826813
0.853165608175580181
0.853161052645805329
0.853153939763311331
0.853143045683483758
0.85312669203216307
0.853102625105626511
0.853067460952313228
0.853021460143242982
0.852954252384945155
0.852878744525682797
0.852774907403501481
0.852658049861978684
0.852500599152627103
0.852330403423464222
0.852135513930406985
0.85189291239941356
0.851620443005210337
0.851383985347343386
0.851070016265900064
0.850733132578542439
0.850419390211018755
0.850116247626182431
0.849710625470903702
0.849319869232555535
0.849022685318635228
0.848655394078946856
0.848172681806796058
0.847766796475275641
0.847451288917522416
0.847046223887712779
0.846628610541397375
0.846258818793969247
0.845922346884144583
0.845491774112877126
0.844977353925901342
0.844371735791050293
0.843804527771149226
0.843416282163946152
0.84310956936979542
0.842697884599560298
0.842101377615495639
0.841544726379296448
0.84115422802374451
0.853173398812460682
0.853173371946785108
0.853173344934965883
0.853173315849849345
0.853173286676562559
0.853173259069906709
0.853173232799899872
0.853173207039060522
0.85317318155554922
0.853173156623141082
0.853173132460526062
0.853173109033834587
0.85317308622230692
0.853173063976072177
0.853173042311300089
0.853173021239250984
0.853173000737435183
0.853172980766633171
0.853172961287288256
0.85317294225218121
0.853172923585081122
0.853172905172957186
0.853172886813949427
0.853172868151887309
0.853172848566212449
0.853172826977893761
0.853172801530985736
0.853172769080733695
0.853172724387326498
0.853172658875140377
0.853172558770578071
0.853172402380090178
0.853172156219964783
0.853171769667173563
0.853171167753482118
0.853170241579644162
0.853168835214126675
0.853166725545901006
0.853163581075122801
0.853159305192934814
0.85315308944264201
0.853145091080652396
0.853133796338836681
0.853119076552302014
0.853103040200179796
0.853081244467130406
0.85305041564043671
0.853020946078494102
0.852980119103142753
0.852938532865380683
0.852883797274817335
0.852831049197852908
0.852758977489764258
0.852686556737751733
0.85261468357775827
0.852516051840935374
0.852426030758913766
0.852332425653888115
0.852206685223664051
0.852076008281453801
0.851986321252914625
0.851881717274079908
0.851783593761908597
0.85168386961227216
0.85155063147932919
0.85136704185986134
0.851181607007291285
0.851012003764112346
0.850786871477915652
0.850575783946210473
0.850402321022449836
0.850210160372887214
0.849953631893775041
0.849698622639316392
0.849470088358922792
0.853173400287859374
0.85317337260343673
0.853173346565041513
0.853173318842346595
0.853173290219692682
0.853173262585156356
0.853173236332831708
0.853173210784901936
0.853173185521375776
0.853173160692493937
0.853173136549705502
0.853173113124510052
0.853173090309480742
0.853173068035936066
0.853173046311388239
0.853173025156007125
0.853173004559500847
0.853172984491167963
0.853172964923414767
0.853172945837167851
0.853172927213060817
0.853172909025351922
0.853172891239427744
0.853172873809790122
0.853172856673431235
0.853172839735076738
0.853172822843386025
0.853172805753702468
0.853172788069098242
0.853172769147976795
0.853172747962700151
0.853172722888640989
0.853172691396839489
0.853172649616778966
0.853172591729553065
0.853172509146407188
0.853172389424501798
0.853172214879265756
0.853171960945576346
0.853171595065097432
0.853171068112672959
0.853170337556748426
0.853169293755797975
0.853167789294286383
0.853166116821366671
0.85316380008873316
0.853160429257184383
0.853156907379191476
0.853151919572725959
0.85314654644931065
0.853138944635164487
0.853131675156209246
0.853122023826895504
0.853109777890486698
0.853098332386379665
0.853082212671501861
0.853067293548871008
0.853047918965675223
0.853025778158381542
0.853004272205411196
0.852978139365518584
0.852950140448005767
0.852926512497337086
0.852894703866961534
0.852864237524036395
0.852830637103940137
0.852785298173160289
0.852740628813148938
0.852694113604504977
0.852636805070743797
0.852582397803908432
0.852530422438958713
0.852460617319537928
0.852380501745186869
0.852310560183167087
0.853173404349785058
0.853173375925194155
0.853173350003011643
0.853173322725092054
0.853173294156307382
0.853173266264841246
0.853173239841473419
0.853173214298319826
0.853173189049950209
0.853173164139726992
0.853173139856215568
0.853173116297463729
0.853173093369304691
0.853173070981853576
0.853173049130930616
0.853173027843333598
0.85317300711831412
0.853172986927281274
0.853172967240669045
0.853172948039972123
0.853172929310969774
0.853172911035586012
0.853172893191437742
0.853172875755198068
0.853172858704011161
0.85317284201376653
0.853172825656340228
0.853172809596804416
0.853172793789607642
0.853172778172047619
0.853172762653619632
0.853172747099824269
0.853172731308334487
0.853172714974444135
0.853172697641815359
0.853172678633612236
0.853172656958064546
0.853172631181509877
0.85317259926364819
0.853172558365560496
0.853172504468148185
0.853172431960056543
0.853172332324945937
0.853172191973800231
0.853172021487825005
0.853171790302926114
0.853171456901358982
0.853171070647600116
0.853170532356370415
0.853169923240803429
0.853169060328777817
0.853168151938322628
0.853166985574095538
0.853165368621567666
0.853163805987938284
0.853161622730874702
0.853159356081379827
0.853156639618658397
0.853152858925622204
0.853149664210037462
0.853145879022791043
0.853140783241354228
0.853136666154419521
0.853131182900421559
0.853124554948587521
0.853117822895694489
0.853109009330979329
0.853099742389511917
0.853089744177615739
0.85307849061935237
0.853066968752782984
0.853054564214354216
0.853040750048542074
0.853023288640378796
0.85300453041431612
0.853173405187720446
0.853173376652510362
0.853173351065693808
0.853173324356691243
0.853173296196027997
0.853173268478466862
0.853173242176819224
0.853173216805491741
0.853173191722387259
0.853173166906413094
0.853173142661971751
0.85317311913109628
0.853173096231002348
0.853173073856415054
0.853173051993574627
0.85317303067524819
0.853173009908855806
0.85317298966773758
0.853172969920802382
0.853172950649706552
0.853172931842938742
0.853172913485521933
0.853172895557432254
0.853172878037763427
0.85317286090741562
0.853172844148431531
0.85317282774249048
0.853172811670474429
0.853172795912770954
0.853172780449231172
0.853172765258360055
0.853172750315940642
0.853172735593195508
0.853172721054242023
0.853172706652361668
0.853172692324592585
0.853172677984114336
0.853172663509731088
0.853172648731534866
0.853172633411388492
0.853172617214775664
0.853172599670346421
0.853172580103090716
0.853172557580212154
0.853172531389266742
0.853172499814348173
0.853172460481910644
0.853172412569414895
0.853172353278025208
0.853172280561414254
0.853172184770086384
0.853172071162017098
0.853171938121995987
0.853171751298795189
0.853171557323403773
0.853171293839717571
0.85317100643515098
0.853170654315963173
0.853170163289190042
0.853169714555085168
0.853169156909922788
0.853168392937884046
0.853167735485310663
0.853166868083121144
0.853165836644511399
0.853164682475661906
0.853163365966068232
0.853161865417376708
0.853160089800419685
0.853158104181729326
0.853156138668494046
0.853153800256591155
0.853151219236623404
0.853147881684234832
0.853143903947426563
0.853173407818977436
0.853173379104199214
0.853173353475261576
0.853173326890074524
0.8531732988037668
0.853173271009222467
0.853173244581149071
0.853173219137254413
0.853173194018915559
0.853173169149341049
0.853173144821816498
0.853173121201957541
0.85317309822044618
0.85317307576549517
0.853173053815388327
0.853173032404289655
0.853173011545452109
0.853172991214968479
0.853172971380972367
0.853172952024499387
0.853172933134916933
0.85317291469834633
0.853172896695074567
0.85317287910397599
0.853172861905867608
0.853172845083103093
0.853172828617969059
0.853172812492264288
0.853172796687931778
0.853172781187576001
0.853172765974396841
0.853172751031874954
0.853172736343545957
0.853172721892894503
0.853172707663175767
0.85317269363705206
0.853172679796031397
0.853172666119715983
0.85317265258479158
0.8531726391636405
0.853172625822338215
0.853172612517613338
0.853172599192204895
0.853172585769246483
0.853172572148961472
0.85317255819012694
0.853172543686801288
0.853172528309277811
0.853172512462954336
0.853172495273032849
0.853172476246821021
0.85317245447116985
0.853172431222685823
0.853172402768886617
0.853172371709359223
0.853172332613562956
0.853172290006391165
0.85317223701861622
0.853172166564915235
0.853172100461524474
0.853172022853797452
0.853171927476978009
0.853171841984721069
0.853171726506336214
0.853171587488292804
0.85317140672528724
0.853171206007447558
0.853170985943883742
0.853170699532879384
0.853170377040966987
0.853170072285449499
0.853169707801038957
0.853169274701711222
0.853168740868994857
0.853168041235440655
0.853173408151153723
0.853173379493139206
0.853173354014274077
0.853173327654562552
0.853173299771398219
0.853173272095281043
0.853173245742809727
0.85317322039532606
0.853173195391822681
0.853173170612368414
0.853173146334514354
0.853173122742839518
0.853173099785561995
0.853173077349863918
0.85317305540683086
0.853173033990189178
0.853173013118055046
0.853172992769664851
0.853172972913185057
0.853172953528745337
0.853172934605710864
0.853172916131121784
0.853172898086094311
0.853172880449967419
0.853172863204038179
0.853172846331351376
0.853172829814933698
0.853172813637203431
0.853172797780627934
0.853172782228368121
0.853172766964319651
0.853172751972863019
0.853172737238734102
0.853172722747100654
0.853172708483684095
0.853172694434779055
0.853172680587210519
0.853172666928318835
0.85317265344600457
0.85317264012884253
0.853172626966264391
0.853172613948684821
0.853172601066678804
0.853172588309542124
0.853172575664613464
0.85317256311712375
0.853172550650050598
0.85317253824152528
0.853172525910481427
0.85317251361577584
0.853172501343923195
0.853172489054970118
0.853172476837523286
0.853172464401168451
0.853172451777221008
0.853172438349357076
0.853172424714652267
0.853172411924623897
0.853172392972299409
0.853172375443069231
0.853172357901021194
0.853172338515567952
0.853172317567035376
0.853172293437395091
0.853172264385494317
0.853172230965946188
0.85317219776865405
0.85317216237867699
0.853172117922285533
0.853172066544637842
0.853172016203145867
0.853171961779504273
0.853171891293547313
0.853171806558648771
0.853171688296180841
0.85317340947973197
0.853173380754026489
0.853173355228488584
0.853173328874171299
0.853173301003644302
0.853173273296467305
0.853173246885749692
0.853173221488091271
0.853173196445692339
0.8531731716179215
0.853173147276042876
0.853173123618267581
0.853173100603717871
0.853173078116955641
0.853173056122244922
0.853173034651979911
0.853173013727260621
0.853172993329168183
0.853172973425023851
0.853172953993901806
0.85317293502534719
0.853172916507492052
0.853172898422151604
0.853172880748666262
0.853172863468133813
0.853172846563496012
0.853172830017683737
0.85317281381291088
0.853172797931361138
0.853172782355902215
0.853172767070238591
0.853172752058649619
0.853172737305793127
0.853172722796804894
0.853172708517469403
0.853172694454263802
0.853172680594311283
0.853172666925374967
0.853172653435925854
0.853172640115338221
0.853172626954419755
0.85317261394678634
0.853172601087839433
0.853172588372553387
0.853172575794806098
0.853172563347884272
0.853172551026321058
0.853172538829326754
0.853172526765501704
0.853172514857898467
0.853172503149648653
0.853172491705519231
0.853172480593667792
0.853172469787894849
0.853172458928369015
0.853172446738210244
0.853172431316808089
0.853172413066520252
0.853172395679151707
0.8531723807897027
0.853172370757633969
0.853172363891912533
0.853172358954833121
0.853172355141813776
0.853172346417822247
0.853172335652014002
0.853172321932636035
0.853172306110452472
0.853172289824219776
0.85317227289575015
0.853172255253432654
0.853172235810210178
0.853172215621567087
0.853172196376921765
0.853172174391455651
0.853173409421790319
0.853173380745891552
0.853173355288616708
0.853173329002291703
0.853173301185331856
0.853173273512480068
0.853173247126013501
0.853173221757661304
0.853173196754703267
0.853173171965299071
0.853173147654089581
0.853173124022166607
0.853173101031687975
0.853173078565512277
0.853173056585314726
0.85317303512391951
0.85317301420465308
0.853172993809771962
0.853172973906352605
0.853172954473419787
0.853172935501639418
0.85317291697948261
0.853172898888173159
0.853172881206437195
0.853172863915195312
0.853172846997559131
0.853172830436736307
0.85317281421520641
0.85317279831540882
0.853172782720363676
0.853172767414070998
0.853172752381168187
0.853172737606597842
0.853172723075762085
0.853172708774742272
0.853172694690325972
0.853172680809932693
0.853172667121544714
0.853172653613650578
0.853172640275137284
0.853172627095385216
0.853172614069447999
0.853172601195270164
0.8531725884698107
0.853172575887828244
0.853172563440937837
0.8531725511193472
0.853172538916788459
0.853172526837592926
0.853172514906340496
0.85317250318284632
0.8531724917864697
0.853172480936563393
0.853172470998994847
0.853172462397138176
0.85317245399548558
0.85317243937157039
0.853172437677933493
0.853172461227525547
0.853172467675001878
0.853172451807123644
0.853172428985336295
0.853172402758081483
0.853172373111258042
0.85317235364400168
0.853172338774703332
0.853172324508396307
0.853172313190306508
0.853172303786051134
0.853172294714849566
0.853172287394900808
0.853172280869273436
0.853172271712846708
0.853172257829757252
0.853172239281048905
0.853173409047091491
0.853173380382521329
0.853173354926991867
0.853173328656489649
0.853173300857016925
0.853173273199097748
0.853173246828057064
0.853173221483503941
0.853173196503020481
0.853173171733625613
0.853173147440841051
0.853173123825575308
0.853173100850044386
0.853173078397381546
0.853173056429484045
0.853173034979316625
0.853173014070287894
0.853172993684712777
0.85317297378970347
0.853172954364241343
0.853172935398827215
0.853172916882283361
0.853172898795998447
0.853172881118689053
0.853172863831223482
0.853172846916674943
0.853172830358235657
0.853172814138401736
0.853172798239721697
0.853172782645709504
0.853172767340522165
0.853172752308610227
0.85317273753480416
0.853172723004491096
0.853172708703710092
0.853172694619100058
0.853172680737735334
0.853172667046889655
0.853172653533709746
0.85317264018460226
0.853172626983032645
0.853172613899431553
0.853172600898264522
0.853172587952060413
0.853172575051017623
0.853172562201288454
0.853172549409572212
0.853172536659451364
0.853172523884569989
0.853172510940354401
0.853172497581180411
0.853172483456090758
0.85317246814980896
0.853172451374611396
0.853172433667351071
0.853172418938104471
0.853172418055424209
0.853172412595076479
0.853172396943391531
0.853172388868745135
0.85317238151573016
0.853172373073825541
0.853172364950403272
0.853172354991118542
0.853172350220107623
0.85317234431287492
0.853172336323988145
0.853172324301161189
0.853172309479825253
0.853172294869115722
0.853172281470112037
0.853172269379361636
0.853172257894635799
0.853172247399868189
0.853172236718517607
0.853173409218673129
0.853173380499959944
0.853173354981156207
0.853173328639585171
0.85317330078014364
0.853173273083346895
0.853173246680449249
0.853173221291030126
0.853173196256260868
0.853173171435735012
0.853173147101166984
0.853173123450462367
0.853173100442469856
0.853173077961677184
0.853173055972320959
0.853173034506763517
0.853173013586075113
0.853172993191314455
0.853172973289787473
0.853172953860588335
0.85317293489338264
0.853172916376016888
0.853172898290266768
0.853172880615539975
0.85317286333295661
0.853172846425441667
0.853172829875918137
0.853172813666620344
0.853172797779795267
0.853172782198424628
0.853172766906187041
0.853172751887256386
0.853172737126329794
0.853172722608752654
0.853172708320623863
0.853172694248836239
0.853172680381061976
0.853172666705692806
0.853172653211769605
0.85317263988892611
0.853172626727926597
0.853172613723163442
0.853172600872000197
0.853172588172081525
0.853172575615694595
0.853172563188738797
0.853172550875028746
0.853172538663041324
0.853172526554315747
0.853172514574228824
0.85317250278855572
0.853172491326580462
0.853172480428242341
0.853172470539092842
0.85317246239666944
0.853172457447523125
0.853172457404362095
0.853172445536225621
0.853172416260215893
0.853172394425000702
0.853172383866552253
0.853172374650510879
0.853172366958906636
0.853172362108463367
0.853172349879467662
0.853172336043112489
0.853172323683458966
0.853172311919645043
0.853172299229052022
0.853172284566283468
0.853172269997873878
0.853172255132358281
0.853172239484907391
0.853172223301636556
0.853172205894103586
0.853173408130719291
0.853173379471953042
0.853173353990272498
0.853173327629252798
0.853173299748220426
0.853173272073569744
0.853173245723441442
0.853173220377666075
0.853173195373320148
0.853173170591163155
0.853173146309908259
0.853173122714512067
0.853173099753148589
0.853173077312926909
0.853173055364903843
0.853173033942787207
0.853173013064652763
0.853172992709684164
0.853172972845998467
0.853172953453671168
0.853172934522017257
0.853172916037936213
0.853172897982443779
0.853172880334852834
0.853172863076440802
0.853172846190209944
0.853172829659143428
0.853172813465639668
0.853172797592176457
0.853172782021932696
0.853172766738799049
0.853172751727158341
0.853172736971869461
0.853172722458409916
0.853172708172978966
0.853172694102465212
0.853172680234269731
0.853172666556061388
0.853172653055703667
0.853172639721619275
0.853172626543590606
0.853172613513567102
0.853172600626140754
0.853172587879374889
0.853172575271040512
0.853172562796483569
0.853172550450306155
0.85317253823042194
0.853172526142240595
0.85317251419710638
0.853172502422837598
0.85317249087868452
0.853172479659866201
0.853172468841791543
0.853172458158054425
0.853172446054618949
0.853172428247722103
0.853172413854759282
0.853172404072521373
0.853172391475855441
0.853172379054174312
0.853172366142888605
0.853172349939582686
0.853172330115624766
0.853172311145953377
0.853172292366319973
0.853172270581052716
0.853172245617057623
0.85317221873587934
0.853172187973108231
0.853172150234251636
0.85317211284293526
0.853172068458895261
0.853172011680375375
0.853171926776999934
0.853173407796387395
0.853173379080991556
0.853173353450108474
0.853173326863578718
0.853173298777554767
0.853173270983175636
0.853173244555109456
0.853173219110431535
0.853173193989663292
0.853173169116230867
0.853173144784022508
0.85317312115888877
0.853173098171459254
0.853173075709867779
0.85317305375237007
0.853173032333103709
0.853173011465266029
0.853172991124874214
0.853172971279978709
0.853172951911543187
0.853172933008850998
0.853172914557907558
0.85317289653889028
0.853172878930600675
0.853172861713795916
0.853172844870771163
0.853172828383763182
0.853172812234555322
0.853172796405123668
0.85317278087816617
0.853172765637069008
0.85317275066566689
0.853172735948179994
0.853172721469326212
0.853172707214451154
0.853172693169564789
0.853172679321205663
0.853172665656005247
0.853172652160019029
0.853172638817963902
0.85317262561209406
0.853172612521068907
0.853172599517153962
0.853172586564951652
0.853172573627014152
0.853172560662782575
0.853172547629320488
0.85317253448145669
0.853172521151123631
0.853172507556803961
0.853172493570715118
0.853172479022834551
0.853172464261314545
0.85317244892002253
0.853172431889166472
0.85317241157416035
0.853172385651706167
0.85317235286626214
0.853172325129589959
0.853172295038313822
0.853172259636526764
0.853172214017574038
0.853172155386608733
0.85317209535665417
0.853172024417631625
0.853171931018652963
0.853171802870881457
0.853171672338190357
0.853171520194015542
0.853171318505364207
0.853171082196974906
0.853170849591267211
0.853170568714342048
0.853170189396544543
0.853169604603237208
0.853173405161143261
0.853173376624754898
0.853173351036170979
0.853173324325533611
0.853173296163782569
0.853173268445004296
0.853173242141709309
0.853173216767918352
0.85317319168111605
0.853173166860246579
0.853173142609985113
0.853173119072483832
0.853173096164898559
0.853173073781861802
0.853173051909566493
0.853173030580741232
0.853173009802724702
0.853172989548758198
0.853172969787644231
0.853172950500938221
0.853172931677022128
0.853172913300802027
0.853172895352144245
0.853172877810073338
0.853172860655463827
0.853172843870404374
0.85317282743674383
0.853172811335757841
0.853172795548611917
0.853172780056589586
0.853172764840694819
0.853172749880850567
0.853172735154882789
0.85317272063715377
0.853172706296605687
0.853172692094651852
0.853172677986048011
0.853172663915335083
0.853172649806923755
0.853172635558149262
0.853172621027527667
0.853172606020057067
0.853172590280298904
0.85317257352955822
0.853172555519907228
0.853172535815986066
0.853172514703170792
0.853172490786770932
0.853172462760304562
0.853172427908324593
0.853172378820128641
0.853172337488828703