/*--------------------------------*- C++ -*----------------------------------*\
  =========                 |
  \\      /  F ield         | OpenFOAM: The Open Source CFD Toolbox
   \\    /   O peration     | Website:  https://openfoam.org
    \\  /    A nd           | Version:  8
     \\/     M anipulation  |
\*---------------------------------------------------------------------------*/
FoamFile
{
    version     2.0;
    format      ascii;
    class       volVectorField;
    location    "0.4";
    object      U;
}
// * * * * * * * * * * * * * * * * * * * * * * * * * * * * * * * * * * * * * //

dimensions      [0 1 -1 0 0 0 0];

internalField   nonuniform List<vector> 
1800
(
(0.956234591017226965 -1.0892001171000727e-11 0.000793076236450547382)
(0.950616348695405455 -1.09083010959095605e-11 0.00167148939857157284)
(0.926011363518706387 0 0.00202127270695908866)
(0.884930785595917313 0 0.0021815013595250024)
(0.845587340895986972 -1.09435266918039246e-11 0.00246289020005478103)
(0.812472056162309775 -1.09554513803591906e-11 0.00282217475479060002)
(0.781714454782519552 0 0.00313869050952598734)
(0.75054840076925633 0 0.00337708480244834196)
(0.719411244423853513 0 0.00356402904118614198)
(0.689687656511878244 0 0.00372356870364184012)
(0.661831114719748981 0 0.00385499736107612189)
(0.635489726284726442 0 0.00394827226449222853)
(0.610334546379884268 0 0.00400015603926598146)
(0.586393549818860049 -1.10374600208974698e-11 0.00401518532208516334)
(0.563863305695010308 -1.10451435372224954e-11 0.00401786742818033716)
(0.997862467040840917 3.26666055632160478e-11 0.0414861624311302704)
(1.00758351887690689 3.26702182051580772e-11 0.0484074430173004888)
(1.01519808558282754 0 0.0459267117544311029)
(1.01322124298245542 0 0.0460977811059499823)
(1.00793598109727145 3.26697541652285734e-11 0.0468655595865908603)
(1.00374712621742024 5.445580324728912e-11 0.0461352462715115402)
(0.999665726355044693 2.17864523127384559e-11 0.0444133255195317753)
(0.993818110870181348 0 0.0425161842967477846)
(0.986226249707225944 0 0.0406578234849594572)
(0.977909735309574035 0 0.0387706165968687774)
(0.969411990963568559 0 0.0368326664545250634)
(0.960667316485441347 0 0.0348835968121433762)
(0.951548327788794723 0 0.0329455348042976756)
(0.942152004537624044 1.09155847265634579e-11 0.0309963260965384103)
(0.932700970158972242 1.09188077427469859e-11 0.0289917023297060969)
(0.999887816355347403 -2.17831847390064397e-11 0.00361478231934279351)
(1.0097173788963294 -2.17817582183103134e-11 0.00407129227282434884)
(1.02148269477906872 0 0.00435865226975048776)
(1.02741932715281559 0 0.00722941054420888404)
(1.02986613426647033 -2.1765772915723775e-11 0.0105511621892680017)
(1.03312344900629927 -4.35235013533089313e-11 0.0127082931808096093)
(1.03734511197649071 -6.52775352217373551e-11 0.0140443471411851924)
(1.04077481806332295 0 0.0152245993718631515)
(1.04288466320154583 4.35116650878323882e-11 0.01635277219591693)
(1.04430165234519756 0 0.0172558042500083539)
(1.04548854969177252 2.17543854612846491e-11 0.0178608969135480578)
(1.0463787997655325 2.17544048131361667e-11 0.0182158317098643982)
(1.04679087117412939 2.1754811145431833e-11 0.0183762677730621403)
(1.04672449204645823 2.17555795448840885e-11 0.0183530664547066555)
(1.04629297678795208 0 0.0181057939923279752)
(1.00000663116573119 -4.35786046417951765e-11 0.0180117580975804464)
(1.00544201495940522 -4.35797036058908603e-11 0.0290584174276058288)
(1.01327142013091276 0 0.0331964630937998176)
(1.01898884306192783 0 0.0350147400124560457)
(1.02305257780781234 -4.35477624647267811e-11 0.0365114799360658146)
(1.02792799712282612 -4.35372816490414513e-11 0.0372581654287047412)
(1.03393556189924896 4.35286033520127506e-11 0.0370810018755189652)
(1.03979529915824997 0 0.0364422134741691495)
(1.04488476001706831 -4.35136056922798304e-11 0.0356830357268696774)
(1.049556550612321 0 0.0348186250524666341)
(1.05418789265399493 -2.17502715572054565e-11 0.0338065138473657295)
(1.05873252940505247 -6.52425661591386742e-11 0.0326818833156589869)
(1.06298944721262245 -6.52351949254608269e-11 0.0314989535458884071)
(1.06688804861645803 -2.17428928528471089e-11 0.0302690129852864684)
(1.07046740372600979 0 0.0289735185085634624)
(1.00003241947752364 4.87316714366965911e-19 0.00237940066320888348)
(1.00355971508915576 -2.37790306009546041e-19 0.00290491128390073673)
(1.01017863785532236 0 0.00249028234754576378)
(1.01633381576431181 -4.35689782395004166e-11 0.00326566722123098089)
(1.02096287645573258 -4.62065158835459768e-21 0.00528344425987071434)
(1.02560201418861952 4.35486228480629683e-11 0.00728198707061554051)
(1.03109169800200551 0 0.00866072099603864241)
(1.03680987335110308 0 0.00970414634438420375)
(1.04214673445420747 0 0.0107189659899297168)
(1.04720562506293091 0 0.0116763153118534975)
(1.05228780076339601 0 0.012448184447432625)
(1.05741552426152752 4.35032090988746913e-11 0.0130091650869752929)
(1.06242903658523469 4.34969713917379211e-11 0.013403964067704997)
(1.0672341091623132 0 0.0136622826953973573)
(1.07183745195793123 0 0.0137902093663767981)
(0.999994529739286819 4.3590030199250031e-11 0.00870078410316839357)
(1.00273081392672458 4.35973720819549467e-11 0.0162225077087825229)
(1.00762321526089238 0 0.0211413819298851315)
(1.01241848296045989 4.35800986367248208e-11 0.0239134588488900783)
(1.01648833679006922 4.35713721714001415e-11 0.0256067252861906375)
(1.02079654145316212 0 0.0265571505165873509)
(1.02594026299971719 0 0.0267806968772574955)
(1.03148212414047435 0 0.0265250213643444324)
(1.03685631649685051 0 0.0260813660830899359)
(1.04202122993882584 0 0.0255375141814515073)
(1.04719721192239601 4.35239853033081137e-11 0.0248649884224268654)
(1.05244279767490223 4.35170315154671183e-11 0.0240754049156706729)
(1.05763930249040983 4.35103751187355377e-11 0.0232278441008411836)
(1.06268609015070115 4.35039724054878238e-11 0.0223673699550098366)
(1.06757407745104849 0 0.02151780416020143)
(1.00002795251678545 8.71872113654959678e-11 0.00141022580592088448)
(1.00176217505655574 8.72072121293101417e-11 0.00167123315046335407)
(1.00575788804895216 0 0.000971058991574815758)
(1.01058597637260128 0 0.000594442022433893432)
(1.01510649815000087 8.71593387616048276e-11 0.00111944349925714118)
(1.01953976677402514 8.71426881025829036e-11 0.00210311527596128726)
(1.02442045149425343 8.71267364730806998e-11 0.00299852331416965981)
(1.02965549286069669 8.71117643589620908e-11 0.00371533840689755764)
(1.0348503298454077 0 0.00439643433554965605)
(1.0398869725425286 -8.70827593936231432e-11 0.00508419121476866472)
(1.04490088185261087 -1.30602905727780138e-10 0.00570589454695600174)
(1.04996811168555371 -4.3527471991528383e-11 0.00621144676896417339)
(1.05501651204399716 -4.35208816058376983e-11 0.00661413368658248131)
(1.05995480304868339 -1.30543465242385064e-10 0.00694121747758194227)
(1.0647631858589115 -8.70123664939494949e-11 0.00720520604003092261)
(0.999995177210155184 -1.74383390351308235e-10 0.00419023932590185683)
(1.0017571540239576 -1.74431549379016581e-10 0.00842957839038995654)
(1.00532602764830625 0 0.0120266170128308023)
(1.00944329631909024 0 0.0145618860333471666)
(1.01337622067690214 -1.74351814551920261e-10 0.0161717565294304012)
(1.01740318155127984 -1.74322830587394412e-10 0.0170947820501706794)
(1.02195981225028931 -8.71468838165756478e-11 0.017454735074666744)
(1.02697288693705291 -8.71326636637445285e-11 0.0174054336914653343)
(1.03207892391405998 0 0.0171401616908451911)
(1.03709698541317619 8.71043906502900316e-11 0.0167673006197460936)
(1.04208987598896985 8.70903420657377205e-11 0.016298314746392692)
(1.04712942208210347 0 0.015737908522027045)
(1.05217018620458536 0 0.0151242754576346779)
(1.0571261392989153 8.70501654713951972e-11 0.0145005529606841068)
(1.06196512587980307 8.70331936339037591e-11 0.0138939315568782622)
(1.00002145458098268 8.71963554372019598e-11 0.00026006840918056098)
(1.00125129188368689 8.72246564183506109e-11 -0.000159641246476140196)
(1.00426679004808994 0 -0.00126800519035358359)
(1.00835496074450082 0 -0.002335918748174405)
(1.0126333790841977 8.71892305738117332e-11 -0.00282548806206364472)
(1.01694496021312197 8.71755169454740699e-11 -0.00280027483066080636)
(1.02155923035874907 0 -0.00256421633383990084)
(1.02651808029960034 0 -0.00226839533509228279)
(1.03157629118240579 0 -0.00191070745811147279)
(1.03655462519736585 0 -0.00148761739511407004)
(1.0414809617325167 0 -0.00104750184584556714)
(1.04642840035985163 0 -0.000633002740271349017)
(1.05137774825847985 0 -0.00025315564675194792)
(1.05625450641568852 0 0.00010003289286332667)
(1.06102232161718679 0 0.000427822324141598773)
(0.999994564342230219 -8.71995554511696272e-11 0.00151173719611185134)
(1.00141454077632996 -8.72307732987845318e-11 0.00329547439352214982)
(1.00456218719205159 0 0.00523387858271701003)
(1.00849125298996745 -8.72123176453431157e-11 0.00692528829388166026)
(1.01241141344994046 -8.72013385474458138e-11 0.00808906052695938273)
(1.01638201886089852 0 0.00873086814275979631)
(1.02075678707440853 0 0.00898727766558602738)
(1.02556503159896151 0 0.00898864554738251081)
(1.03053805721355451 0 0.00882445520525168212)
(1.03547412176095133 0 0.00855316360343261542)
(1.04037890401786037 0 0.00820905085486897841)
(1.04531528104079907 0 0.00781054499812625178)
(1.05026774615987017 0 0.00738711679001225873)
(1.05515876326679114 0 0.00695902775095547446)
(1.05994916998562538 0 0.00653998817829305398)
(1.00001443090954667 8.71995100429843322e-11 -0.00150045016616493897)
(1.00146412971668286 8.7230664481760575e-11 -0.00328539588230306783)
(1.00461372571834651 0 -0.00523322396344521549)
(1.00853485241088348 8.7212181444844357e-11 -0.00692514079419454063)
(1.0124641787667632 1.74402405983895976e-10 -0.00808981380825907204)
(1.01643171392915899 8.71891934283678662e-11 -0.00873387127154517245)
(1.02079950262470476 0 -0.0089880598299838018)
(1.02561085483365244 0 -0.00898810374244387277)
(1.03058917878110234 0 -0.00882440737169162999)
(1.03552345309269533 -8.71362029277967949e-11 -0.00855636427774623433)
(1.0404206055660159 -8.71225260704942605e-11 -0.00821236370733934538)
(1.04535345260028767 0 -0.00781336266861628811)
(1.0503037115819438 0 -0.00738868690476951039)
(1.05519616195685084 0 -0.00696005496674507312)
(1.05998463886065486 0 -0.00654217985132864947)
(1.00002183920234011 0 -0.000265091519192079588)
(1.00125398717640257 0 0.000157996757007229562)
(1.00427518527359272 0 0.00127368439109353665)
(1.00836686168096623 0 0.00234122722721932883)
(1.01264704719138177 -8.71892008756191607e-11 0.00283271083377415215)
(1.01695958718071355 -8.71754846751088275e-11 0.00281106670402466547)
(1.02157387238147468 0 0.0025745380571443599)
(1.02653317151115231 0 0.00227906324844968705)
(1.03159172482573513 0 0.00192324576332738965)
(1.03657065370721124 8.71196912449949368e-11 0.0015045779879690295)
(1.04149691111697584 1.742117584873886e-10 0.00106639287549639694)
(1.04644443308172663 8.70922769725365657e-11 0.000653619514019885281)
(1.05139358260214344 8.7078946889351427e-11 0.000275002211986777193)
(1.05627007911826709 8.70658840948247333e-11 -7.64103178507022151e-05)
(1.06103766742871719 0 -0.000401239725484172803)
(0.999995176330955915 0 -0.00419241072340136717)
(1.00175424898205256 0 -0.00843162977996994925)
(1.00532044435663237 0 -0.0120267033543907682)
(1.00943905429574077 -1.74379206009875596e-10 -0.0145613185145677896)
(1.0133738103778227 -3.48703671973110577e-10 -0.0161711775683230467)
(1.01740142509608278 -1.74322851233505613e-10 -0.0170938586526902421)
(1.02195877639102717 0 -0.0174538148328792081)
(1.02697218736657714 0 -0.0174045488911783661)
(1.03207838485562453 0 -0.0171390434687338535)
(1.03709665438135756 0 -0.0167656259524719929)
(1.0420903808051547 -8.70903471821858254e-11 -0.0162963396238182401)
(1.0471305601703893 -8.70766111029133526e-11 -0.0157357358758540462)
(1.05217183494898325 -8.70632324214565992e-11 -0.0151219554352521948)
(1.05712796047985846 -8.7050170109274146e-11 -0.0144979208474308972)
(1.061966840898247 0 -0.0138906435064479333)
(1.00002794523572525 1.74374417793326771e-10 -0.0014114828866403624)
(1.0017607401635833 1.74414424245923992e-10 -0.00167266081477547568)
(1.00575471210001233 0 -0.00097146785897418719)
(1.01058280800694633 1.74350935667439216e-10 -0.000594050199871070696)
(1.01510430747436797 3.4863738566218877e-10 -0.00111888229967560646)
(1.0195381022812231 1.74285391597590231e-10 -0.00210248522704827197)
(1.02441891801531249 1.74253487093378089e-10 -0.00299780374666780034)
(1.02965395586479325 1.74223544418761604e-10 -0.00371448111960067783)
(1.034848860012759 0 -0.0043953468567148558)
(1.03988568362497436 -1.74165534155185233e-10 -0.00508276579509220946)
(1.04489998710080001 -1.74137223551741397e-10 -0.0057041963208254165)
(1.04996755398418751 0 -0.00620950029113274526)
(1.05501623022271218 0 -0.0066119203677536334)
(1.05995465522255938 -1.74057972755459048e-10 -0.00693859276013128641)
(1.06476304876612859 -1.7402475663789283e-10 -0.00720190866262899066)
(0.999994528413674977 -1.74360107534581753e-10 -0.0087012727143731556)
(1.00273020308984795 -1.74389478413660074e-10 -0.0162231028105312078)
(1.00762172959074214 0 -0.021141574118447512)
(1.01241679274274743 0 -0.0239132017281729857)
(1.01648710967199163 0 -0.0256063002165456653)
(1.02079571770815947 0 -0.0265566932616187606)
(1.02593952418961187 -1.74216396602088723e-10 -0.026780165021439227)
(1.03148135033598032 -1.74185440043916595e-10 -0.0265243350791836141)
(1.03685560730414861 0 -0.0260804758169307094)
(1.0420207057252695 1.74125099325978999e-10 -0.0255363875019164396)
(1.04719695179741623 1.74095952784600393e-10 -0.024863631555223982)
(1.05244277063859593 0 -0.0240737986179913807)
(1.05763947741095099 0 -0.0232259380345472867)
(1.06268641772201233 1.74015905625627192e-10 -0.0223650435815845108)
(1.06757452324207858 1.73982934016847036e-10 -0.0215148639144962031)
(1.00003241758895722 -1.74342051408236215e-10 -0.00237970576539623356)
(1.00355939565793562 -1.74358056511700695e-10 -0.00290529290265407157)
(1.01017784394412291 0 -0.00249042170026257887)
(1.01633286305674364 0 -0.00326547623490637713)
(1.02096217775346565 -1.74234699789397542e-10 -0.0052830771627023548)
(1.02560161515367265 -1.74194496991661786e-10 -0.00728156184673673951)
(1.03109141212863586 0 -0.00866021470444867415)
(1.03680960692071911 0 -0.00970348416571856047)
(1.04214656128440786 0 -0.0107181047903455087)
(1.04720564967629914 0 -0.0116752393905357708)
(1.05228807201432795 0 -0.0124468808965168213)
(1.05741603004660623 0 -0.0130075931918681477)
(1.06242977051737841 0 -0.0134020542778130851)
(1.06723507800390194 0 -0.0136599259818362944)
(1.0718386845625012 0 -0.0137872572836024616)
(1.00000663069577422 1.74314417785835722e-10 -0.0180118818131586068)
(1.00544186512514155 1.74318814208075705e-10 -0.0290585766232072801)
(1.0132710299228791 0 -0.033196511004151788)
(1.01898835053350112 0 -0.0350146066820987908)
(1.02305221630124765 1.74191053357991027e-10 -0.0365112172639073043)
(1.02792784175797647 1.74149130047969072e-10 -0.0372578364571230503)
(1.03393553183465592 0 -0.0370805967228751351)
(1.03979534051362599 0 -0.0364416808551226573)
(1.04488492673309152 0 -0.0356823404450916787)
(1.0495569323937417 -3.48053843825359967e-10 -0.0348177531716108088)
(1.05418854329040301 -3.48004353210046606e-10 -0.0338054475435261084)
(1.05873346753680786 0 -0.0326805811128799487)
(1.06299070200973533 0 -0.0314973507096721686)
(1.06688967616315789 0 -0.0302670157517368754)
(1.07046949007753467 0 -0.0289710052370120291)
(0.999887815655236101 0 -0.00361485390627026273)
(1.00971729170394031 0 -0.00407137533370493989)
(1.02148248222141214 0 -0.0043586621254196314)
(1.02741907221688944 0 -0.00722930561146445903)
(1.02986597863454854 0 -0.01055096815749656)
(1.03312346121781462 0 -0.012708042643269914)
(1.03734527166526935 0 -0.0140440327494169501)
(1.04077511164148429 0 -0.0152241849536657523)
(1.04288514400213739 0 -0.0163522284913601504)
(1.04430240816435993 3.48077395091224661e-10 -0.0172551162127380121)
(1.0454896554336246 6.96140332161265217e-10 -0.0178600441942367433)
(1.04638031534107845 3.48070472822608922e-10 -0.0182147738858505978)
(1.0467928736519847 0 -0.0183749530929255209)
(1.04672709908608019 0 -0.0183514324820499598)
(1.04629634745340883 0 -0.0181037674487418421)
(0.997862466040201346 0 -0.0414861920344137408)
(1.00758347164007001 0 -0.0484074800736289806)
(1.01519797385181398 0 -0.0459267171106557751)
(1.01322112170832046 0 -0.0460977166411500605)
(1.00793594893508121 -1.74238692699947237e-10 -0.0468654301545798208)
(1.00374725451915414 -1.74258572949637106e-10 -0.0461350702253187916)
(0.999666032338648147 0 -0.0444131056913732933)
(0.993818612414971492 0 -0.0425159044833616356)
(0.986227009008034061 0 -0.04065746601891565)
(0.977910846648902043 0 -0.0387701735249705096)
(0.969413552422656699 -3.48953482227193325e-10 -0.0368321321490339693)
(0.960669427526140374 -3.49065068430419024e-10 -0.0348829562641008312)
(0.951551100924064031 0 -0.0329447425536982808)
(0.942155603185620527 0 -0.0309953207525261662)
(0.932705611801993073 0 -0.02899040921179993)
(0.956234590792750305 -1.74272018733008321e-10 -0.000793076708377380281)
(0.950616317697788871 -1.7453281766665503e-10 -0.0016714903426853524)
(0.926011295553129443 0 -0.00202127371242725442)
(0.884930732760538685 -1.7491083690770906e-10 -0.00218150142053130831)
(0.845587368221559776 0 -0.00246288827980574616)
(0.812472224263424581 1.75287221471777669e-10 -0.00282217001290752676)
(0.781714785863589556 0 -0.00313868197118005775)
(0.750548916162062318 0 -0.00337707123424645008)
(0.71941199824203117 0 -0.00356400922176463089)
(0.689688727858134731 0 -0.00372354133629246471)
(0.661832586768987929 0 -0.00385496082363977416)
(0.635491680193981723 0 -0.00394822471530971789)
(0.610337090200511967 0 -0.00400009461255902959)
(0.58639682206787036 0 -0.00401510571188930156)
(0.563867487920834298 0 -0.00401776490542995329)
(0.546394693118590569 0 0.00397213294139271873)
(0.52843850887103172 -1.10063044999745531e-11 0.00388135270964162912)
(0.512350871037689615 -1.10133439591292554e-11 0.0038210649821445071)
(0.497980837488479711 4.95903570443226424e-10 0.00376562665844083983)
(0.484261151076766483 -1.16880830436072878e-09 0.00368616784717944873)
(0.470802457570566935 6.5092289063311785e-10 0.00358358534562963149)
(0.457886551680474541 0 0.00347254584896064316)
(0.445770124963735137 -3.31316547740165454e-10 0.00336015492570934009)
(0.434420106937170702 3.3147290431223402e-10 0.00324446655006637797)
(0.423690074686559059 6.63241711754732917e-10 0.00312303884685792175)
(0.413507902351216206 -9.95282277889584038e-10 0.002997194043216341)
(0.403880919691189888 3.31892929151512975e-10 0.00286996079210335682)
(0.39481680490057447 0 0.00274328288672638816)
(0.38628950800251699 0 0.00261778202192976739)
(0.378258682751189401 0 0.00249387480829303112)
(0.370692384691331422 3.32350788477853151e-10 0.00237233528325905439)
(0.363568548567017924 -3.32449233926876649e-10 0.00225404075068741079)
(0.356866168319377897 0 0.00213962752352502309)
(0.350561119901679319 0 0.00202946625932906577)
(0.344628203470431882 0 0.00192381002826373247)
(0.339043829655648832 0 0.00182287642483094838)
(0.333786367037398168 -3.32861548629738097e-10 0.00172682989283222269)
(0.328835224769913781 3.32930210857283433e-10 0.00163575143620912585)
(0.324170352652442373 1.10998317875189745e-11 0.00154964538396355962)
(0.319772430032496002 -5.77760247251959922e-26 0.0014684673492539053)
(0.315623162937980595 -1.11037989225951361e-11 0.0013921447793573587)
(0.311705334746122553 1.33267568537427183e-09 0.00132058678433017037)
(0.308002693921087534 -1.34399301675022951e-09 0.00125369071231015879)
(0.304499861893121671 -1.11090660906029712e-11 0.0011913533078850764)
(0.301182305928115568 0 0.00113348315117654374)
(0.298036321707496388 6.66741683793378483e-10 0.00108001028247986194)
(0.295048980566628649 -1.3336869991779645e-09 0.00103088924961500543)
(0.292208045472781064 -2.00085798789030934e-09 0.000986092658628058387)
(0.289501875874101922 2.66830129705933361e-09 0.000945590369536983863)
(0.286919337066013802 -6.67219819001354072e-10 0.00090930769972058902)
(0.284449751958638641 2.0021922611195681e-09 0.00087704153193892396)
(0.282082890883172233 -1.33524533626478141e-09 0.000848309286718258075)
(0.279807455244164061 0 0.000822593311994754294)
(0.277618139689111476 0 0.000799450496677344704)
(0.275507451576634699 0 0.000778282179865873972)
(0.273463528100149456 0 0.000758662383565685732)
(0.271486124810642826 0 0.000740454305560762547)
(0.269566112649279155 0 0.000723019862156521181)
(0.267699519178536793 1.34200635676275518e-09 0.000706332410841589752)
(0.265885551327408598 -1.34348806287899253e-09 0.000690547758413215815)
(0.264119876288557598 0 0.000676305147749454473)
(0.262403368212910937 6.73303760171908853e-10 0.00066531838016054847)
(0.260734566806412549 -6.74088703913202565e-10 0.000660595763231877045)
(0.259111593953206154 0 0.000667446009736406267)
(0.257538695592982259 0 0.000694142128411223734)
(0.256012628487805483 0 0.00075421256510217684)
(0.254538448663182149 0 0.000869146056994908904)
(0.2531158637046938 0 0.00107325661341447338)
(0.251748408281570302 0 0.00142420660558097525)
(0.250439116664406436 -1.35728589510670835e-09 0.00202019292182683457)
(0.249189898361359768 1.35826657354283372e-09 0.00302617028001053029)
(0.247994586006315271 0 0.00471494842603686903)
(0.246798502023189897 -1.36005954313533999e-09 0.00753723960387754285)
(0.245473928394703528 1.36089893832404229e-09 0.0122531381650595548)
(0.243869303221234013 0 0.0202053343046629252)
(0.241963344326102558 -2.72510559965290111e-09 0.0230402419902881531)
(0.241591497124480442 2.72669038973275335e-09 0.0178316575563194982)
(0.242878708564979506 -1.36418259745900884e-09 0.0104240195477750819)
(0.244712409685775789 -1.36509440930247921e-09 0.00177872639692149633)
(0.246296483905937558 5.46412092229841926e-09 -0.00780805671083476243)
(0.247197642863465739 -5.46744438695910271e-09 -0.00767321480389856689)
(0.245038166937447816 2.72418895443366322e-09 -0.00130873722803751956)
(0.24175215529397498 -1.14066110254793675e-11 0.000967343126353077372)
(0.239051430890574568 2.73943229619339447e-09 0.0021004627572498236)
(0.236935186283563859 -4.80842470495096266e-09 0.00308599341220762132)
(0.235429884081016699 2.04562104182100492e-09 0.00437448884078771045)
(0.234536389605696616 1.37208406053216414e-09 0.006306133405695925)
(0.234043874745464897 -6.86360866277219312e-10 0.00889942450421548313)
(0.233209178287715618 -6.86733569425220054e-10 0.0109905909356388942)
(0.229870709050019106 0 0.0098838356303471292)
(0.925157525653384827 0 0.0275201849711212733)
(0.916720422112496935 1.08411199504949627e-11 0.0262595758181452567)
(0.908709793196624149 1.08446939642033343e-11 0.0250248819664271524)
(0.901251025012376972 6.50898673417603786e-10 0.023757002421496181)
(0.893863960297783033 -1.26967290878319825e-09 0.0225015667267919155)
(0.886326954507512754 6.62182582470864898e-10 0.0212973757376330279)
(0.878776392080054758 -2.17179134524956971e-11 0.0201408146668518653)
(0.871381280593088947 -3.25872586634004227e-10 0.0190209624946999674)
(0.864169953086720954 9.71531183880413157e-18 0.017940159721220799)
(0.857094010545570439 9.78225850733152886e-10 0.0169065024744918663)
(0.85012932566675703 -6.5234731101393177e-10 0.0159231024768025503)
(0.843293135274662431 0 0.0149879649450108815)
(0.836608282059225217 0 0.0140992013387197229)
(0.830080832184013295 0 0.0132568167943138242)
(0.82370587344246704 0 0.0124610027264549176)
(0.817479746544051422 3.26633307197468656e-10 0.0117107972836443513)
(0.811403047933157207 -3.26718556708765938e-10 0.0110044690888573254)
(0.805476859710215765 0 0.010340349246537579)
(0.799699953769627436 0 0.00971700699353232437)
(0.794069296202291053 0 0.00913296979187086001)
(0.78858155111379169 3.27037519373387065e-10 0.0085865604034691366)
(0.783233614446098403 -6.54223895796413239e-10 0.00807598561753059864)
(0.778022291302898239 9.8155302984900153e-10 0.00759947138340015451)
(0.772943991911709705 -6.65418038211736659e-10 0.00715529567753059315)
(0.76799479024942241 -6.32825012591723409e-10 0.0067417551661064579)
(0.763170627776350807 6.87518918236489364e-10 0.00635714825882902328)
(0.758467421414219967 1.30981942486422611e-09 0.00599979342928844486)
(0.753881058360763801 -1.27732047398980282e-09 0.00566805306796785719)
(0.749407374857010034 3.27579667087385728e-11 0.00536034112814819975)
(0.745042168705954744 2.18426513205785908e-11 0.00507511978065872549)
(0.740781231845070831 2.18465666299144468e-11 0.00481089718230057195)
(0.73662037517065182 -6.55512038378059429e-10 0.00456623133961891591)
(0.732555442514884136 -6.55625076276225142e-10 0.00433973777402621528)
(0.728582330235002185 1.31147346476567116e-09 0.00413009713101608091)
(0.724697028070711458 0 0.00393605159007709166)
(0.720895692316968595 6.55959134378239819e-10 0.00375632513025318977)
(0.717174680485931915 -1.31214474236883269e-09 0.00358937282643118777)
(0.713529968299627892 6.56189248342233742e-10 0.00343446783356987509)
(0.709958923999948976 0 0.00329042804582612867)
(0.706458510118658456 0 0.00315530711317805416)
(0.70302488625058579 0 0.00303137215544872817)
(0.699654273680682115 0 0.00291533918589281316)
(0.696345770392056251 0 0.00280458036680334821)
(0.693097234156799025 1.31415773274110466e-09 0.00269806241308646151)
(0.689908502220267783 -1.31456979034777303e-09 0.00259566766829014443)
(0.686775653916228523 6.57499267055693426e-10 0.00249396200168909002)
(0.683699553580260355 -9.43343253626403416e-18 0.00239015845821039441)
(0.680682216009751206 -6.57998697543097393e-10 0.0022844879796631223)
(0.677714039906876065 0 0.002167207493257166)
(0.674799132984035932 0 0.00203014539614514416)
(0.671935287425537986 1.31773257261555009e-09 0.00186269725022141018)
(0.66912390647874187 -1.31840239441390711e-09 0.00164478100293168755)
(0.66635146239319909 0 0.00133575601805010396)
(0.663613885076891674 0 0.000880731591282519957)
(0.660887142857247478 -1.32042553390930138e-09 0.000188113481949273113)
(0.658116562359074231 1.3211751136524463e-09 -0.000885572408399719151)
(0.655248474969900907 0 -0.00250745336099317002)
(0.652241957234489855 -1.32249880922202403e-09 -0.00489926135032927972)
(0.649210209301393282 1.32337796930233652e-09 -0.00857563514759233231)
(0.64662943280607732 0 -0.0157226626420632169)
(0.646078312159588108 -2.64955168491215195e-09 -0.0218153099485018966)
(0.645752197788656779 1.98820658159288534e-09 -0.0203182751905067668)
(0.643510192215732246 -6.63107502652672093e-10 -0.0144096505663774046)
(0.640403430704074794 1.32690711436246853e-09 -0.00680887427430134154)
(0.637106708901591379 2.65518875944802534e-09 0.00482658346207705778)
(0.632040311140807387 -3.32103935012029578e-09 0.0103155221525020151)
(0.629097777501945843 6.75747067490904616e-10 0.00657827381217233279)
(0.62829926952308135 1.10866469419816816e-11 0.00405412244405312702)
(0.626883333562634704 2.66279692759290826e-09 0.0021526222149755715)
(0.624916163843452499 -2.65315404835093039e-09 3.65243666415935279e-05)
(0.622858294784233157 1.11062041620512804e-11 -0.0024043163256268203)
(0.620305722441038987 6.66767994604272996e-10 -0.0051031856390957777)
(0.617171019053190162 -7.94827907438462887e-18 -0.00718169011734169985)
(0.614560183439915475 -6.67785695128180817e-10 -0.00746830368817821919)
(0.614452865966327866 0 -0.00697760839550873313)
(1.04606848804146835 0 0.0180279370649188767)
(1.04492953916859577 0 0.0181473056414158534)
(1.04368428595557083 2.15708941750761907e-11 0.0181602092406162492)
(1.04261911620011904 3.45159088082929991e-10 0.0179789263959636014)
(1.04148836097677222 -3.45186656991023489e-10 0.0177015682306459338)
(1.04008583569420288 0 0.0174072568894406421)
(1.0384576396607399 4.31558101994700755e-11 0.0170985029372112095)
(1.03673007253098515 -6.25818117120646447e-10 0.0167581145347214903)
(1.03494798973601676 3.23730917774881869e-10 0.0163880659232215203)
(1.0330862975249 3.23763825237628782e-10 0.0160018405946397123)
(1.03112585377771171 0 0.0156080572733305195)
(1.02908046144057685 0 0.0152085975609111152)
(1.02697449179122069 0 0.0148045859115598089)
(1.02482146727082846 0 0.0143990816061211752)
(1.02262479872211243 0 0.0139955803153116991)
(1.02038754768565387 6.47948575325581579e-10 0.013596490325105702)
(1.01811635034064341 -6.48020849600201962e-10 0.0132033109025589644)
(1.01581887782469016 -4.32062128047119664e-11 0.0128173771791395257)
(1.01350105989431305 -4.32110339127494294e-11 0.0124400689859638629)
(1.01116700961751138 0 0.0120725667054117775)
(1.00882025399348008 3.2415477415232866e-10 0.011715693628097457)
(1.00646435907794363 -6.91606503067651077e-10 0.0113699991932108262)
(1.00410270843412297 9.51063260838240914e-10 0.0110358891320997098)
(1.00173817135715715 -6.26905461026686546e-10 0.0107136669451755959)
(0.999373086529459664 -6.70212787487540762e-10 0.0104035183265459956)
(0.997009432458238143 6.27040538702836316e-10 0.0101055129143484169)
(0.99464894254934999 9.73097447601788021e-10 0.0098196371691299765)
(0.992293111098616065 -9.9482677513717857e-10 0.00954583167493274626)
(0.989943172581309705 2.86561813997615574e-20 0.0092840151490702922)
(0.987600114326823153 2.64258133092864777e-20 0.00903409904474062643)
(0.985264716672310081 -2.1633391534715491e-11 0.00879600239958886788)
(0.982937592524897208 -6.49067804668803248e-10 0.00856966599419994174)
(0.98061921620703496 -6.49133305053451946e-10 0.00835505730206250255)
(0.978309952181974696 1.29839667181767939e-09 0.0081521562901342437)
(0.976010091747168351 -4.32841931529241256e-11 0.0079609134578574256)
(0.973719889365530333 6.49327126153701664e-10 0.00778119269685438597)
(0.971439574010279583 -1.90488069966028308e-09 0.00761279431981628368)
(0.969169283747987609 1.34220729662735885e-09 0.00745548451536825595)
(0.966909253076344233 0 0.00730847214721397614)
(0.96465969162394416 -4.50739406614341425e-25 0.00717082738739980349)
(0.962420749133735765 4.3309966683719018e-11 0.00704107360317362228)