 vasp.5.3.5 31Mar14 (build Jan 31 2018 16:04:57) complex                        
  
 executed on             LinuxIFC date 2019.01.29  09:34:56
 running on    8 total cores
 distrk:  each k-point on    8 cores,    1 groups
 distr:  one band on NCORES_PER_BAND=   1 cores,    8 groups


--------------------------------------------------------------------------------------------------------


 INCAR:
 POTCAR:    PAW_PBE Co 02Aug2007                  
 POTCAR:    PAW_PBE C 08Apr2002                   
 POTCAR:    PAW_PBE O 08Apr2002                   
 POTCAR:    PAW_PBE H 15Jun2001                   

 ----------------------------------------------------------------------------- 
|                                                                             |
|           W    W    AA    RRRRR   N    N  II  N    N   GGGG   !!!           |
|           W    W   A  A   R    R  NN   N  II  NN   N  G    G  !!!           |
|           W    W  A    A  R    R  N N  N  II  N N  N  G       !!!           |
|           W WW W  AAAAAA  RRRRR   N  N N  II  N  N N  G  GGG   !            |
|           WW  WW  A    A  R   R   N   NN  II  N   NN  G    G                |
|           W    W  A    A  R    R  N    N  II  N    N   GGGG   !!!           |
|                                                                             |
|      For optimal performance we recommend to set                            |
|        NCORE= 4 - approx SQRT( number of cores)                             |
|      NCORE specifies how many cores store one orbital (NPAR=cpu/NCORE).     |
|      This setting can  greatly improve the performance of VASP for DFT.     |
|      The default, NPAR=number of cores might be grossly inefficient         |
|      on modern multi-core architectures or massively parallel machines.     |
|      Do your own testing !!!!                                               |
|      Unfortunately you need to use the default for GW and RPA calculations. |
|      (for HF NCORE is supported but not extensively tested yet)             |
|                                                                             |
 ----------------------------------------------------------------------------- 

 POTCAR:    PAW_PBE Co 02Aug2007                  
   VRHFIN =Co: d8 s1                                                            
   LEXCH  = PE                                                                  
   EATOM  =   813.3670 eV,   59.7808 Ry                                         
                                                                                
   TITEL  = PAW_PBE Co 02Aug2007                                                
   LULTRA =        F    use ultrasoft PP ?                                      
   IUNSCR =        1    unscreen: 0-lin 1-nonlin 2-no                           
   RPACOR =    2.000    partial core radius                                     
   POMASS =   58.933; ZVAL   =    9.000    mass and valenz                      
   RCORE  =    2.300    outmost cutoff radius                                   
   RWIGS  =    2.460; RWIGS  =    1.302    wigner-seitz radius (au A)           
   ENMAX  =  267.968; ENMIN  =  200.976 eV                                      
   RCLOC  =    1.203    cutoff for local pot                                    
   LCOR   =        T    correct aug charges                                     
   LPAW   =        T    paw PP                                                  
   EAUG   =  477.818                                                            
   DEXC   =    0.000                                                            
   RMAX   =    2.360    core radius for proj-oper                               
   RAUG   =    1.300    factor for augmentation sphere                          
   RDEP   =    2.393    radius for radial grids                                 
   RDEPT  =    1.864    core radius for aug-charge                              
                                                                                
   Atomic configuration                                                         
    9 entries                                                                   
     n  l   j            E        occ.                                          
     1  0  0.50     -7587.6674   2.0000                                         
     2  0  0.50      -893.6084   2.0000                                         
     2  1  1.50      -764.5805   6.0000                                         
     3  0  0.50       -97.5973   2.0000                                         
     3  1  1.50       -60.9648   6.0000                                         
     3  2  2.50        -4.2382   8.0000                                         
     4  0  0.50        -4.3746   1.0000                                         
     4  1  1.50        -4.0817   0.0000                                         
     4  3  2.50        -1.3606   0.0000                                         
   Description                                                                  
     l       E           TYP  RCUT    TYP  RCUT                                 
     2     -4.2382362     23  2.300                                             
     2     -5.5988188     23  2.300                                             
     0     -4.3745797     23  2.300                                             
     0      5.7660125     23  2.300                                             
     1     -2.7211652     23  2.300                                             
     1     16.9860234     23  2.300                                             
  local pseudopotential read in
  partial core-charges read in
  partial kinetic energy density read in
  atomic valenz-charges read in
  non local Contribution for L=           2  read in
    real space projection operators read in
  non local Contribution for L=           2  read in
    real space projection operators read in
  non local Contribution for L=           0  read in
    real space projection operators read in
  non local Contribution for L=           0  read in
    real space projection operators read in
  non local Contribution for L=           1  read in
    real space projection operators read in
  non local Contribution for L=           1  read in
    real space projection operators read in
    PAW grid and wavefunctions read in
 
   number of l-projection  operators is LMAX  =           6
   number of lm-projection operators is LMMAX =          18
 
 POTCAR:    PAW_PBE C 08Apr2002                   
   VRHFIN =C: s2p2                                                              
   LEXCH  = PE                                                                  
   EATOM  =   147.1560 eV,   10.8157 Ry                                         
                                                                                
   TITEL  = PAW_PBE C 08Apr2002                                                 
   LULTRA =        F    use ultrasoft PP ?                                      
   IUNSCR =        1    unscreen: 0-lin 1-nonlin 2-no                           
   RPACOR =    1.200    partial core radius                                     
   POMASS =   12.011; ZVAL   =    4.000    mass and valenz                      
   RCORE  =    1.500    outmost cutoff radius                                   
   RWIGS  =    1.630; RWIGS  =    0.863    wigner-seitz radius (au A)           
   ENMAX  =  400.000; ENMIN  =  300.000 eV                                      
   ICORE  =        2    local potential                                         
   LCOR   =        T    correct aug charges                                     
   LPAW   =        T    paw PP                                                  
   EAUG   =  644.873                                                            
   DEXC   =    0.000                                                            
   RMAX   =    1.529    core radius for proj-oper                               
   RAUG   =    1.300    factor for augmentation sphere                          
   RDEP   =    1.501    radius for radial grids                                 
   RDEPT  =    1.300    core radius for aug-charge                              
                                                                                
   Atomic configuration                                                         
    4 entries                                                                   
     n  l   j            E        occ.                                          
     1  0  0.50      -273.3789   2.0000                                         
     2  0  0.50       -13.7508   2.0000                                         
     2  1  0.50        -5.2854   2.0000                                         
     3  2  1.50        -5.4423   0.0000                                         
   Description                                                                  
     l       E           TYP  RCUT    TYP  RCUT                                 
     0    -13.7508458     23  1.200                                             
     0     -8.2022199     23  1.200                                             
     1     -5.2854383     23  1.500                                             
     1     34.0145650     23  1.500                                             
     2     -5.4423304      7  1.500                                             
  local pseudopotential read in
  partial core-charges read in
  partial kinetic energy density read in
  atomic valenz-charges read in
  non local Contribution for L=           0  read in
    real space projection operators read in
  non local Contribution for L=           0  read in
    real space projection operators read in
  non local Contribution for L=           1  read in
    real space projection operators read in
  non local Contribution for L=           1  read in
    real space projection operators read in
    PAW grid and wavefunctions read in
 
   number of l-projection  operators is LMAX  =           4
   number of lm-projection operators is LMMAX =           8
 
 POTCAR:    PAW_PBE O 08Apr2002                   
   VRHFIN =O: s2p4                                                              
   LEXCH  = PE                                                                  
   EATOM  =   432.3788 eV,   31.7789 Ry                                         
                                                                                
   TITEL  = PAW_PBE O 08Apr2002                                                 
   LULTRA =        F    use ultrasoft PP ?                                      
   IUNSCR =        1    unscreen: 0-lin 1-nonlin 2-no                           
   RPACOR =    1.200    partial core radius                                     
   POMASS =   16.000; ZVAL   =    6.000    mass and valenz                      
   RCORE  =    1.520    outmost cutoff radius                                   
   RWIGS  =    1.550; RWIGS  =    0.820    wigner-seitz radius (au A)           
   ENMAX  =  400.000; ENMIN  =  300.000 eV                                      
   ICORE  =        2    local potential                                         
   LCOR   =        T    correct aug charges                                     
   LPAW   =        T    paw PP                                                  
   EAUG   =  605.392                                                            
   DEXC   =    0.000                                                            
   RMAX   =    1.553    core radius for proj-oper                               
   RAUG   =    1.300    factor for augmentation sphere                          
   RDEP   =    1.550    radius for radial grids                                 
   RDEPT  =    1.329    core radius for aug-charge                              
                                                                                
   Atomic configuration                                                         
    4 entries                                                                   
     n  l   j            E        occ.                                          
     1  0  0.50      -514.6923   2.0000                                         
     2  0  0.50       -23.9615   2.0000                                         
     2  1  0.50        -9.0305   4.0000                                         
     3  2  1.50        -9.5241   0.0000                                         
   Description                                                                  
     l       E           TYP  RCUT    TYP  RCUT                                 
     0    -23.9615318     23  1.200                                             
     0     -9.5240782     23  1.200                                             
     1     -9.0304911     23  1.520                                             
     1      8.1634956     23  1.520                                             
     2     -9.5240782      7  1.500                                             
  local pseudopotential read in
  partial core-charges read in
  partial kinetic energy density read in
  kinetic energy density of atom read in
  atomic valenz-charges read in
  non local Contribution for L=           0  read in
    real space projection operators read in
  non local Contribution for L=           0  read in
    real space projection operators read in
  non local Contribution for L=           1  read in
    real space projection operators read in
  non local Contribution for L=           1  read in
    real space projection operators read in
    PAW grid and wavefunctions read in
 
   number of l-projection  operators is LMAX  =           4
   number of lm-projection operators is LMMAX =           8
 
 POTCAR:    PAW_PBE H 15Jun2001                   
   VRHFIN =H: ultrasoft test                                                    
   LEXCH  = PE                                                                  
   EATOM  =    12.4884 eV,    0.9179 Ry                                         
                                                                                
   TITEL  = PAW_PBE H 15Jun2001                                                 
   LULTRA =        F    use ultrasoft PP ?                                      
   IUNSCR =        0    unscreen: 0-lin 1-nonlin 2-no                           
   RPACOR =    0.000    partial core radius                                     
   POMASS =    1.000; ZVAL   =    1.000    mass and valenz                      
   RCORE  =    1.100    outmost cutoff radius                                   
   RWIGS  =    0.700; RWIGS  =    0.370    wigner-seitz radius (au A)           
   ENMAX  =  250.000; ENMIN  =  200.000 eV                                      
   RCLOC  =    0.701    cutoff for local pot                                    
   LCOR   =        T    correct aug charges                                     
   LPAW   =        T    paw PP                                                  
   EAUG   =  400.000                                                            
   RMAX   =    1.123    core radius for proj-oper                               
   RAUG   =    1.200    factor for augmentation sphere                          
   RDEP   =    1.112    radius for radial grids                                 
   RDEPT  =    0.926    core radius for aug-charge                              
                                                                                
   Atomic configuration                                                         
    2 entries                                                                   
     n  l   j            E        occ.                                          
     1  0  0.50        -6.4927   1.0000                                         
     2  1  0.50        -3.4015   0.0000                                         
   Description                                                                  
     l       E           TYP  RCUT    TYP  RCUT                                 
     0     -6.4927494     23  1.100                                             
     0      6.8029130     23  1.100                                             
     1     -4.0817478     23  1.100                                             
  local pseudopotential read in
  atomic valenz-charges read in
  non local Contribution for L=           0  read in
    real space projection operators read in
  non local Contribution for L=           0  read in
    real space projection operators read in
  non local Contribution for L=           1  read in
    real space projection operators read in
    PAW grid and wavefunctions read in
 
   number of l-projection  operators is LMAX  =           3
   number of lm-projection operators is LMMAX =           5
 
 Optimization of the real space projectors (new method)

 maximal supplied QI-value         = 16.25
 optimisation between [QCUT,QGAM] = [ 10.24, 20.48] = [ 29.35,117.42] Ry 
 Optimized for a Real-space Cutoff    1.34 Angstroem

   l    n(q)    QCUT    max X(q) W(low)/X(q) W(high)/X(q)  e(spline) 
   2      7    10.239    65.824    0.41E-03    0.10E-02    0.11E-06
   2      7    10.239    61.429    0.41E-03    0.10E-02    0.11E-06
   0      8    10.239    56.174    0.42E-03    0.17E-03    0.96E-07
   0      8    10.239    31.263    0.38E-03    0.16E-03    0.87E-07
   1      8    10.239    19.828    0.20E-03    0.56E-03    0.13E-06
   1      8    10.239    15.139    0.15E-03    0.46E-03    0.11E-06
 Optimization of the real space projectors (new method)

 maximal supplied QI-value         = 25.13
 optimisation between [QCUT,QGAM] = [ 10.05, 20.36] = [ 28.30,116.06] Ry 
 Optimized for a Real-space Cutoff    1.30 Angstroem

   l    n(q)    QCUT    max X(q) W(low)/X(q) W(high)/X(q)  e(spline) 
   0      8    10.053   115.676    0.49E-03    0.72E-03    0.18E-06
   0      8    10.053    87.132    0.49E-03    0.71E-03    0.18E-06
   1      7    10.053     4.429    0.32E-03    0.31E-03    0.18E-06
   1      7    10.053     2.733    0.23E-03    0.19E-03    0.20E-06
 Optimization of the real space projectors (new method)

 maximal supplied QI-value         = 24.76
 optimisation between [QCUT,QGAM] = [ 10.15, 20.30] = [ 28.85,115.39] Ry 
 Optimized for a Real-space Cutoff    1.38 Angstroem

   l    n(q)    QCUT    max X(q) W(low)/X(q) W(high)/X(q)  e(spline) 
   0      8    10.150    20.381    0.22E-03    0.32E-03    0.29E-06
   0      8    10.150    15.268    0.23E-03    0.35E-03    0.30E-06
   1      8    10.150     5.964    0.46E-03    0.53E-03    0.21E-06
   1      8    10.150     5.382    0.38E-03    0.45E-03    0.19E-06
 Optimization of the real space projectors (new method)

 maximal supplied QI-value         = 34.20
 optimisation between [QCUT,QGAM] = [  9.92, 20.18] = [ 27.55,114.04] Ry 
 Optimized for a Real-space Cutoff    1.26 Angstroem

   l    n(q)    QCUT    max X(q) W(low)/X(q) W(high)/X(q)  e(spline) 
   0      8     9.919    19.460    0.50E-03    0.23E-03    0.29E-06
   0      8     9.919    12.209    0.48E-03    0.23E-03    0.28E-06
   1      7     9.919     4.655    0.17E-03    0.75E-03    0.30E-06
  PAW_PBE Co 02Aug2007                  :
 energy of atom  1       EATOM= -813.3670
 kinetic energy error for atom=    0.0093 (will be added to EATOM!!)
  PAW_PBE C 08Apr2002                   :
 energy of atom  2       EATOM= -147.1560
 kinetic energy error for atom=    0.0288 (will be added to EATOM!!)
  PAW_PBE O 08Apr2002                   :
 energy of atom  3       EATOM= -432.3788
 kinetic energy error for atom=    0.1156 (will be added to EATOM!!)
  PAW_PBE H 15Jun2001                   :
 energy of atom  4       EATOM=  -12.4884
 kinetic energy error for atom=    0.0098 (will be added to EATOM!!)
 
 
 POSCAR: Co C O H                                
  positions in direct lattice
  velocities in cartesian coordinates
 exchange correlation table for  LEXCH =        8
   RHO(1)=    0.500       N(1)  =     2000
   RHO(2)=  100.500       N(2)  =     4000

 VTST: version 3.1, (03/28/14)

 CHAIN: initializing optimizer
 
 OPT: Using VASP Conjugate-Gradient optimizer
 CHAIN: Read ICHAIN            0
 
 POSCAR: Co C O H                                
  positions in direct lattice
  velocities in cartesian coordinates
 


--------------------------------------------------------------------------------------------------------


 ion  position               nearest neighbor table
   1  0.222  0.111  0.000-   4 2.47   5 2.47  13 2.47   3 2.47   2 2.47  10 2.47  11 2.47   9 2.47
                             8 2.47
   2  0.556  0.111  0.000-   5 2.47   6 2.47  14 2.47   3 2.47   1 2.47  12 2.47  11 2.47   9 2.47
                             7 2.47
   3  0.889  0.111  0.000-   4 2.47   6 2.47  15 2.47   1 2.47   2 2.47  10 2.47  12 2.47   8 2.47
                             7 2.47
   4  0.222  0.444  0.000-   9 2.47   7 2.47   3 2.47   1 2.47   6 2.47   5 2.47  16 2.47  15 2.47
                            13 2.47
   5  0.556  0.444  0.000-   7 2.47   8 2.47   1 2.47   2 2.47   4 2.47   6 2.47  17 2.47  14 2.47
                            13 2.47
   6  0.889  0.444  0.000-   9 2.47   8 2.47   2 2.47   3 2.47   4 2.47   5 2.47  18 2.47  15 2.47
                            14 2.47
   7  0.556  0.778  0.000-   5 2.47   4 2.47  16 2.47  17 2.47   8 2.47   9 2.47  12 2.47   3 2.47
                             2 2.47
   8  0.889  0.778  0.000-   5 2.47   6 2.47  17 2.47  18 2.47   7 2.47   9 2.47  10 2.47   3 2.47
                             1 2.47
   9  0.222  0.778  0.000-   4 2.47   6 2.47  18 2.47  16 2.47   7 2.47   8 2.47  11 2.47   2 2.47
                             1 2.47
  10  0.000  0.000  0.082-  19 2.46  15 2.47  13 2.47  12 2.47  11 2.47  18 2.47  17 2.47   3 2.47
                             1 2.47   8 2.47  27 2.49  20 2.50
  11  0.333  0.000  0.082-  14 2.47  13 2.47  12 2.47  10 2.47  16 2.47  18 2.47   2 2.47   1 2.47
                             9 2.47  20 2.48  21 2.48  25 2.50
  12  0.667  0.000  0.082-  14 2.47  15 2.47  11 2.47  10 2.47  16 2.47  17 2.47   2 2.47   3 2.47
                             7 2.47  19 2.47  21 2.49  26 2.50
  13  0.333  0.333  0.082-  10 2.47  11 2.47   1 2.47  14 2.47  15 2.47  16 2.47  17 2.47   5 2.47
                             4 2.47  23 2.48  22 2.49  20 2.49
  14  0.667  0.333  0.082-  23 2.47  11 2.47  12 2.47   2 2.47  13 2.47  15 2.47  17 2.47  18 2.47
                             5 2.47   6 2.47  21 2.50  24 2.50
  15  1.000  0.333  0.082-  19 2.47  12 2.47  10 2.47   3 2.47  14 2.47  13 2.47  18 2.47  16 2.47
                             6 2.47   4 2.47  24 2.49  22 2.51
  16  0.333  0.667  0.082-   7 2.47   9 2.47  17 2.47  18 2.47  13 2.47  15 2.47   4 2.47  12 2.47
                            11 2.47  22 2.49  26 2.49  25 2.50
  17  0.667  0.667  0.082-   7 2.47   8 2.47  16 2.47  18 2.47  13 2.47  14 2.47   5 2.47  10 2.47
                            12 2.47  23 2.48  26 2.49  27 2.50
  18  1.000  0.667  0.082-   9 2.47   8 2.47  16 2.47  17 2.47  15 2.47  14 2.47   6 2.47  10 2.47
                            11 2.47  27 2.48  24 2.48  25 2.50
  19  0.890  0.111  0.163-  28 2.39  35 2.39  36 2.39  10 2.46  15 2.47  12 2.47  24 2.48  21 2.48
                            20 2.48  27 2.48  22 2.49  26 2.49
  20  0.224  0.110  0.164-  29 2.39  36 2.39  34 2.44  21 2.45  25 2.46  23 2.47  27 2.47  11 2.48
                            19 2.48  22 2.49  13 2.49  10 2.50
  21  0.554  0.109  0.164-  30 2.39  35 2.40  34 2.43  20 2.45  25 2.46  23 2.47  26 2.47  19 2.48
                            11 2.48  12 2.49  24 2.49  14 2.50
  22  0.225  0.446  0.165-  28 2.39  29 2.39  26 2.44  25 2.46  31 2.47  23 2.47  24 2.47  19 2.49
                            16 2.49  20 2.49  13 2.49  15 2.51
  23  0.557  0.444  0.164-  32 2.39  29 2.39  30 2.40  24 2.47  21 2.47  20 2.47  14 2.47  27 2.47
                            22 2.47  26 2.47  17 2.48  13 2.48
  24  0.891  0.446  0.164-  30 2.39  28 2.40  33 2.43  27 2.45  25 2.46  23 2.47  22 2.47  19 2.48
                            18 2.48  15 2.49  21 2.49  14 2.50
  25  0.223  0.777  0.165-  21 2.46  24 2.46  27 2.46  22 2.46  20 2.46  26 2.46  34 2.46  33 2.47
                            16 2.50  11 2.50  18 2.50  31 2.52
  26  0.554  0.776  0.165-  35 2.39  32 2.40  22 2.44  25 2.46  31 2.47  23 2.47  21 2.47  19 2.49
                            16 2.49  27 2.49  17 2.49  12 2.50
  27  0.891  0.777  0.164-  32 2.39  36 2.39  33 2.44  24 2.45  25 2.46  20 2.47  23 2.47  18 2.48
                            19 2.48  26 2.49  10 2.49  17 2.50
  28  1.000  0.328  0.242-  19 2.39  22 2.39  24 2.40  36 2.42  35 2.43  30 2.48  29 2.48  33 2.49
                            31 2.50
  29  0.337  0.332  0.242-  20 2.39  23 2.39  22 2.39  34 2.43  31 2.44  30 2.45  32 2.46  36 2.48
                            28 2.48
  30  0.668  0.332  0.242-  21 2.39  24 2.39  23 2.40  33 2.43  34 2.43  29 2.45  32 2.45  35 2.48
                            28 2.48
  31  0.338  0.662  0.247-  37 2.00  40 2.08  29 2.44  32 2.44  22 2.47  26 2.47  35 2.50  28 2.50
                            25 2.52  34 2.55  33 2.55
  32  0.668  0.664  0.242-  27 2.39  23 2.39  26 2.40  33 2.43  31 2.44  30 2.45  29 2.46  36 2.48
                            35 2.48
  33  0.994  0.662  0.245-  40 2.04  32 2.43  24 2.43  30 2.43  27 2.44  25 2.47  28 2.49  36 2.50
                            31 2.55  34 2.55
  34  0.338  0.006  0.245-  40 2.05  29 2.43  21 2.43  30 2.43  20 2.44  25 2.46  35 2.50  36 2.50
                            31 2.55  33 2.55
  35  0.672  0.001  0.242-  19 2.39  26 2.39  21 2.40  36 2.42  28 2.43  30 2.48  32 2.48  34 2.50
                            31 2.50
  36  0.999  0.001  0.241-  20 2.39  27 2.39  19 2.39  28 2.42  35 2.42  29 2.48  32 2.48  34 2.50
                            33 2.50
  37  0.316  0.684  0.328-  40 1.38  39 1.51  38 1.51  31 2.00
  38  0.514  0.828  0.357-  42 1.10  43 1.11  41 1.11  37 1.51
  39  0.172  0.486  0.357-  46 1.10  45 1.11  44 1.11  37 1.51
  40  0.218  0.782  0.304-  37 1.38  33 2.04  34 2.05  31 2.08
  41  0.477  0.866  0.397-  38 1.11
  42  0.610  0.755  0.363-  38 1.10
  43  0.606  0.976  0.335-  38 1.11
  44  0.134  0.523  0.398-  39 1.11
  45  0.023  0.393  0.335-  39 1.11
  46  0.245  0.390  0.363-  39 1.10
 
  LATTYP: Found a hexagonal cell.
 ALAT       =     7.4100015225
 C/A-ratio  =     3.3333326485
  
  Lattice vectors:
  
 A1 = (   7.4100000000,   0.0000000000,   0.0000000000)
 A2 = (  -3.7050000000,   6.4172500001,   0.0000000000)
 A3 = (   0.0000000000,   0.0000000000,  24.7000000000)


Analysis of symmetry for initial positions (statically):
=====================================================================
 Subroutine PRICEL returns:
 Original cell was already a primitive cell.
 

 Routine SETGRP: Setting up the symmetry group for a 
 hexagonal supercell.


 Subroutine GETGRP returns: Found  1 space group operations
 (whereof  1 operations were pure point group operations)
 out of a pool of 24 trial point group operations.


The static configuration has the point symmetry C_1 .


Analysis of symmetry for dynamics (positions and initial velocities):
=====================================================================
 Subroutine PRICEL returns:
 Original cell was already a primitive cell.
 

 Routine SETGRP: Setting up the symmetry group for a 
 hexagonal supercell.


 Subroutine GETGRP returns: Found  1 space group operations
 (whereof  1 operations were pure point group operations)
 out of a pool of 24 trial point group operations.


The dynamic configuration has the point symmetry C_1 .


Analysis of constrained symmetry for selective dynamics:
=====================================================================
 Subroutine PRICEL returns:
 Original cell was already a primitive cell.
 

 Routine SETGRP: Setting up the symmetry group for a 
 hexagonal supercell.


 Subroutine GETGRP returns: Found  1 space group operations
 (whereof  1 operations were pure point group operations)
 out of a pool of 24 trial point group operations.


The constrained configuration has the point symmetry C_1 .


Analysis of magnetic symmetry:
=====================================================================
 Subroutine PRICEL returns:
 Original cell was already a primitive cell.
 

 Subroutine MAGSYM returns: Found  1 space group operations
 (whereof  1 operations were pure point group operations)
 out of a pool of  1 trial space group operations
 (whereof  1 operations were pure point group operations)
 and found also     1 'primitive' translations


The magnetic configuration has the point symmetry C_1 .
 
 
 KPOINTS:  Automatic mesh                         

Automatic generation of k-mesh.
Space group operators:
 irot       det(A)        alpha          n_x          n_y          n_z        tau_x        tau_y        tau_z
    1     1.000000     0.000000     1.000000     0.000000     0.000000     0.000000     0.000000     0.000000
 
 Subroutine IBZKPT returns following result:
 ===========================================
 
 Found      5 irreducible k-points:
 
 Following reciprocal coordinates:
            Coordinates               Weight
  0.000000  0.000000  0.000000      1.000000
  0.333333  0.000000  0.000000      2.000000
  0.000000  0.333333  0.000000      2.000000
  0.333333  0.333333  0.000000      2.000000
 -0.333333  0.333333  0.000000      2.000000
 
 Following cartesian coordinates:
            Coordinates               Weight
  0.000000  0.000000  0.000000      1.000000
  0.111111  0.064150  0.000000      2.000000
  0.000000  0.128300  0.000000      2.000000
  0.111111  0.192450  0.000000      2.000000
 -0.111111  0.064150  0.000000      2.000000
 


--------------------------------------------------------------------------------------------------------




 Dimension of arrays:
   k-points           NKPTS =      5   k-points in BZ     NKDIM =      5   number of bands    NBANDS=    240
   number of dos      NEDOS =    301   number of ions     NIONS =     46
   non local maximal  LDIM  =      6   non local SUM 2l+1 LMDIM =     18
   total plane-waves  NPLWV = 163296
   max r-space proj   IRMAX =   1582   max aug-charges    IRDMAX=   5682
   dimension x,y,z NGX =    36 NGY =   36 NGZ =  126
   dimension x,y,z NGXF=    72 NGYF=   72 NGZF=  252
   support grid    NGXF=    72 NGYF=   72 NGZF=  252
   ions per type =              36   3   1   6
 NGX,Y,Z   is equivalent  to a cutoff of   8.08,  8.08,  8.48 a.u.
 NGXF,Y,Z  is equivalent  to a cutoff of  16.15, 16.15, 16.96 a.u.


 I would recommend the setting:
   dimension x,y,z NGX =    36 NGY =   36 NGZ =  121
 SYSTEM =  unknown system                          
 POSCAR =  Co C O H                                

 Startparameter for this run:
   NWRITE =      2    write-flag & timer
   PREC   = normal    normal or accurate (medium, high low for compatibility)
   ISTART =      0    job   : 0-new  1-cont  2-samecut
   ICHARG =      2    charge: 1-file 2-atom 10-const
   ISPIN  =      2    spin polarized calculation?
   LNONCOLLINEAR =      F non collinear calculations
   LSORBIT =      F    spin-orbit coupling
   INIWAV =      1    electr: 0-lowe 1-rand  2-diag
   LASPH  =      F    aspherical Exc in radial PAW
   METAGGA=      F    non-selfconsistent MetaGGA calc.
   LSOL =      F    Solvation

 Electronic Relaxation 1
   ENCUT  =  400.0 eV  29.40 Ry    5.42 a.u.  12.08 12.08 40.28*2*pi/ulx,y,z
   ENINI  =  400.0     initial cutoff
   ENAUG  =  644.9 eV  augmentation charge cutoff
   NELM   =     60;   NELMIN=  2; NELMDL= -5     # of ELM steps 
   EDIFF  = 0.1E-05   stopping-criterion for ELM
   LREAL  =      T    real-space projection
   NLSPLINE    = F    spline interpolate recip. space projectors
   LCOMPAT=      F    compatible to vasp.4.4
   GGA_COMPAT  = T    GGA compatible to vasp.4.4-vasp.4.6
   LMAXPAW     = -100 max onsite density
   LMAXMIX     =    2 max onsite mixed and CHGCAR
   VOSKOWN=      0    Vosko Wilk Nusair interpolation
   ROPT   =   -0.00050  -0.00050  -0.00050  -0.00050
 Ionic relaxation
   EDIFFG = -.1E-01   stopping-criterion for IOM
   NSW    =    500    number of steps for IOM
   NBLOCK =      1;   KBLOCK =    500    inner block; outer block 
   IBRION =      2    ionic relax: 0-MD 1-quasi-New 2-CG
   NFREE  =      1    steps in history (QN), initial steepest desc. (CG)
   ISIF   =      2    stress and relaxation
   IWAVPR =     11    prediction:  0-non 1-charg 2-wave 3-comb
   ISYM   =      2    0-nonsym 1-usesym 2-fastsym
   LCORR  =      T    Harris-Foulkes like correction to forces

   POTIM  = 0.5000    time-step for ionic-motion
   TEIN   =    0.0    initial temperature
   TEBEG  =    0.0;   TEEND  =   0.0 temperature during run
   SMASS  =  -3.00    Nose mass-parameter (am)
   estimated Nose-frequenzy (Omega)   =  0.10E-29 period in steps =****** mass=  -0.125E-26a.u.
   SCALEE = 1.0000    scale energy and forces
   NPACO  =    256;   APACO  = 16.0  distance and # of slots for P.C.
   PSTRESS=    0.0 pullay stress

  Mass of Ions in am
   POMASS =  58.93 12.01 16.00  1.00
  Ionic Valenz
   ZVAL   =   9.00  4.00  6.00  1.00
  Atomic Wigner-Seitz radii
   RWIGS  =  -1.00 -1.00 -1.00 -1.00
  virtual crystal weights 
   VCA    =   1.00  1.00  1.00  1.00
   NELECT =     348.0000    total number of electrons
   NUPDOWN=      -1.0000    fix difference up-down

 DOS related values:
   EMIN   =  10.00;   EMAX   =-10.00  energy-range for DOS
   EFERMI =   0.00
   ISMEAR =     2;   SIGMA  =   0.20  broadening in eV -4-tet -1-fermi 0-gaus

 Electronic relaxation 2 (details)
   IALGO  =     38    algorithm
   LDIAG  =      T    sub-space diagonalisation (order eigenvalues)
   LSUBROT=      F    optimize rotation matrix (better conditioning)
   TURBO    =      0    0=normal 1=particle mesh
   IRESTART =      0    0=no restart 2=restart with 2 vectors
   NREBOOT  =      0    no. of reboots
   NMIN     =      0    reboot dimension
   EREF     =   0.00    reference energy to select bands
   IMIX   =      4    mixing-type and parameters
     AMIX     =   0.40;   BMIX     =  1.00
     AMIX_MAG =   1.60;   BMIX_MAG =  1.00
     AMIN     =   0.10
     WC   =   100.;   INIMIX=   1;  MIXPRE=   1;  MAXMIX= -45

 Intra band minimization:
   WEIMIN = 0.0010     energy-eigenvalue tresh-hold
   EBREAK =  0.10E-08  absolut break condition
   DEPER  =   0.30     relativ break condition  

   TIME   =   0.40     timestep for ELM

  volume/ion in A,a.u.               =      25.53       172.31
  Fermi-wavevector in a.u.,A,eV,Ry     =   1.091390  2.062428 16.206329  1.191132
  Thomas-Fermi vector in A             =   2.227634
 
 Write flags
   LWAVE  =      F    write WAVECAR
   LCHARG =      F    write CHGCAR
   LVTOT  =      F    write LOCPOT, total local potential
   LVHAR  =      F    write LOCPOT, Hartree potential only
   LELF   =      F    write electronic localiz. function (ELF)
   LORBIT =      0    0 simple, 1 ext, 2 COOP (PROOUT)


 Dipole corrections
   LMONO  =      F    monopole corrections only (constant potential shift)
   LDIPOL =      F    correct potential (dipole corrections)
   IDIPOL =      3    1-x, 2-y, 3-z, 4-all directions 
   EPSILON=  1.0000000 bulk dielectric constant

 Exchange correlation treatment:
   GGA     =    PE    GGA type
   LEXCH   =     8    internal setting for exchange type
   VOSKOWN=      0    Vosko Wilk Nusair interpolation
   LHFCALC =     F    Hartree Fock is set to
   LHFONE  =     F    Hartree Fock one center treatment
   AEXX    =    0.0000 exact exchange contribution

 Linear response parameters
   LEPSILON=     F    determine dielectric tensor
   LRPA    =     F    only Hartree local field effects (RPA)
   LNABLA  =     F    use nabla operator in PAW spheres
   LVEL    =     F    velocity operator in full k-point grid
   LINTERFAST=   F  fast interpolation
   KINTER  =     0    interpolate to denser k-point grid
   CSHIFT  =0.1000    complex shift for real part using Kramers Kronig
   OMEGAMAX=  -1.0    maximum frequency
   DEG_THRESHOLD= 0.2000000E-02 threshold for treating states as degnerate
   RTIME   =    0.100 relaxation time in fs

 Orbital magnetization related:
   ORBITALMAG=     F  switch on orbital magnetization
   LCHIMAG   =     F  perturbation theory with respect to B field
   DQ        =  0.001000  dq finite difference perturbation B field



--------------------------------------------------------------------------------------------------------


 conjugate gradient relaxation of ions
   using selective dynamics as specified on POSCAR
 charge density and potential will be updated during run
 spin polarized calculation
 Variant of blocked Davidson
 Davidson routine will perform the subspace rotation
 perform sub-space diagonalisation
    after iterative eigenvector-optimisation
 modified Broyden-mixing scheme, WC =      100.0
 initial mixing is a Kerker type mixing with AMIX =  0.4000 and BMIX =      1.0000
 Hartree-type preconditioning will be used
 using additional bands           66
 real space projection scheme for non local part
 use partial core corrections
 calculate Harris-corrections to forces 
   (improved forces if not selfconsistent)
 use gradient corrections 
 use of overlap-Matrix (Vanderbilt PP)
 Methfessel and Paxton  Order N= 2 SIGMA  =   0.20


--------------------------------------------------------------------------------------------------------


  energy-cutoff  :      400.00
  volume of cell :     1174.53
      direct lattice vectors                 reciprocal lattice vectors
     7.410000000  0.000000000  0.000000000     0.134952767  0.077914995  0.000000000
    -3.705000000  6.417250000  0.000000000     0.000000000  0.155829989  0.000000000
     0.000000000  0.000000000 24.700000000     0.000000000  0.000000000  0.040485830

  length of vectors
     7.410000000  7.410001522 24.700000000     0.155830021  0.155829989  0.040485830


 
 k-points in units of 2pi/SCALE and weight:  Automatic mesh                         
   0.00000000  0.00000000  0.00000000       0.111
   0.11111111  0.06415001  0.00000000       0.222
   0.00000000  0.12830002  0.00000000       0.222
   0.11111111  0.19245004  0.00000000       0.222
  -0.11111111  0.06415001  0.00000000       0.222
 
 k-points in reciprocal lattice and weights:  Automatic mesh                         
   0.00000000  0.00000000  0.00000000       0.111
   0.33333333  0.00000000  0.00000000       0.222
   0.00000000  0.33333333  0.00000000       0.222
   0.33333333  0.33333333  0.00000000       0.222
  -0.33333333  0.33333333  0.00000000       0.222
 
 position of ions in fractional coordinates (direct lattice) 
   0.22222237  0.11111141  0.00000000
   0.55555571  0.11111141  0.00000000
   0.88888904  0.11111141  0.00000000
   0.22222206  0.44444412  0.00000000
   0.55555539  0.44444412  0.00000000
   0.88888872  0.44444412  0.00000000
   0.55555431  0.77777528  0.00000000
   0.88888764  0.77777528  0.00000000
   0.22222097  0.77777528  0.00000000
   0.00000000  0.00000000  0.08164980
   0.33333333  0.00000000  0.08164980
   0.66666667  0.00000000  0.08164980
   0.33333302  0.33333270  0.08164980
   0.66666635  0.33333270  0.08164980
   0.99999968  0.33333270  0.08164980
   0.33333309  0.66666617  0.08164980
   0.66666642  0.66666617  0.08164980
   0.99999975  0.66666617  0.08164980
   0.88963844  0.11096946  0.16319216
   0.22394071  0.11003483  0.16429055
   0.55431933  0.10923226  0.16425178
   0.22485191  0.44641708  0.16458024
   0.55682143  0.44354035  0.16368280
   0.89097165  0.44598420  0.16424167
   0.22287494  0.77742617  0.16484188
   0.55402900  0.77556068  0.16453012
   0.89060468  0.77660115  0.16428676
   0.99969542  0.32798021  0.24160518
   0.33653087  0.33241261  0.24180255
   0.66768335  0.33238240  0.24175337
   0.33830579  0.66219336  0.24731866
   0.66815878  0.66384798  0.24177312
   0.99419955  0.66157974  0.24504743
   0.33840781  0.00579746  0.24505663
   0.67228400  0.00058623  0.24157590
   0.99936850  0.00115225  0.24147240
   0.31554589  0.68385637  0.32752755
   0.51405574  0.82812651  0.35710524
   0.17173743  0.48556164  0.35724312
   0.21778476  0.78160721  0.30393711
   0.47703662  0.86620767  0.39745588
   0.60983172  0.75464573  0.36267858
   0.60645712  0.97613290  0.33486096
   0.13425214  0.52294691  0.39762792
   0.02343411  0.39264583  0.33518456
   0.24544626  0.38997562  0.36282667
 
 position of ions in cartesian coordinates  (Angst):
   1.23500000  0.71302972  0.00000000
   3.70500000  0.71302972  0.00000000
   6.17500000  0.71302972  0.00000000
  -0.00000000  2.85210900  0.00000000
   2.47000000  2.85210900  0.00000000
   4.94000000  2.85210900  0.00000000
   1.23500000  4.99117840  0.00000000
   3.70500000  4.99117840  0.00000000
  -1.23500000  4.99117840  0.00000000
   0.00000000  0.00000000  2.01675006
   2.47000000  0.00000000  2.01675006
   4.94000000  0.00000000  2.01675006
   1.23500000  2.13907928  2.01675006
   3.70500000  2.13907928  2.01675006
   6.17500000  2.13907928  2.01675006
   0.00000000  4.27816350  2.01675006
   2.47000000  4.27816350  2.01675006
   4.94000000  4.27816350  2.01675006
   6.18107896  0.71211878  4.03084627
   1.25172164  0.70612100  4.05797657
   3.70280070  0.70097069  4.05701905
   0.01217741  2.86477000  4.06513186
   2.48272981  2.84630929  4.04296508
   4.94972848  2.86199214  4.05676933
  -1.22886068  4.98893812  4.07159432
   1.23190255  4.97696676  4.06389387
   3.72207341  4.98364372  4.05788308
   6.19257635  2.10473102  5.96764804
   1.26210500  2.13317483  5.97252290
   3.71605684  2.13298098  5.97130820
   0.05341950  4.24946031  6.10877087
   2.49149980  4.26007845  5.97179615
   4.91586574  4.24552256  6.05267157
   2.48612230  0.03720377  6.05289868
   4.97945247  0.00376196  5.96692483
   7.40105147  0.00739428  5.96436827
  -0.19549283  4.38847728  8.08993059
   0.74094433  5.31429483  8.82049934
  -0.52643151  3.11597045  8.82390510
  -1.28206966  5.01576889  7.50724665
   0.32554193  5.55867118  9.81716027
   1.72289060  4.84275033  8.95816095
   0.87727486  6.26408883  8.27106579
  -0.94270997  3.35588106  9.82140955
  -1.28110602  2.51970642  8.27905875
   0.37389709  2.50257103  8.96181879
 


--------------------------------------------------------------------------------------------------------


 k-point  1 :   0.0000 0.0000 0.0000  plane waves:   21237
 k-point  2 :   0.3333 0.0000 0.0000  plane waves:   21309
 k-point  3 :   0.0000 0.3333 0.0000  plane waves:   21309
 k-point  4 :   0.3333 0.3333 0.0000  plane waves:   21354
 k-point  5 :  -0.3333 0.3333 0.0000  plane waves:   21309

 maximum and minimum number of plane-waves per node :     21354    21237

 maximum number of plane-waves:     21354
 maximum index in each direction: 
   IXMAX=   12   IYMAX=   12   IZMAX=   40
   IXMIN=  -12   IYMIN=  -12   IZMIN=  -40

 WARNING: aliasing errors must be expected set NGX to  50 to avoid them
 WARNING: aliasing errors must be expected set NGY to  50 to avoid them
 WARNING: aliasing errors must be expected set NGZ to 162 to avoid them
 aliasing errors are usually negligible using standard VASP settings
 and one can safely disregard these warnings

 serial   3D FFT for wavefunctions
 parallel 3D FFT for charge:
    minimum data exchange during FFTs selected (reduces bandwidth)


 total amount of memory used by VASP on root node   182107. kBytes
========================================================================

   base      :      30000. kBytes
   nonlr-proj:       9644. kBytes
   fftplans  :       6203. kBytes
   grid      :      28885. kBytes
   one-center:       1430. kBytes
   wavefun   :     105945. kBytes
 
     INWAV:  cpu time    0.00: real time    0.00
 Broyden mixing: mesh for mixing (old mesh)
   NGX = 25   NGY = 25   NGZ = 81
  (NGX  = 72   NGY  = 72   NGZ  =252)
  gives a total of  50625 points

 initial charge density was supplied:
 charge density of overlapping atoms calculated
 number of electron     348.0000000 magnetization      58.6800000
 keeping initial charge density in first step


--------------------------------------------------------------------------------------------------------


 Maximum index for non-local projection operator         1497
 Maximum index for augmentation-charges          722 (set IRDMAX)


--------------------------------------------------------------------------------------------------------


 First call to EWALD:  gamma=   0.168
 Maximum number of real-space cells 4x 4x 1
 Maximum number of reciprocal cells 2x 2x 6

 FEWALD executed in parallel
    FEWALD:  cpu time    0.00: real time    0.00


----------------------------------------- Iteration    1(   1)  ---------------------------------------


    POTLOK:  cpu time    0.30: real time    0.30
    SETDIJ:  cpu time    0.05: real time    0.05
     EDDAV:  cpu time   20.36: real time   20.40
       DOS:  cpu time    0.00: real time    0.00
    --------------------------------------------
      LOOP:  cpu time   20.70: real time   20.74

 eigenvalue-minimisations  :  4800
 total energy-change (2. order) : 0.2653426E+04  (-0.1279922E+05)
 number of electron     348.0000000 magnetization      58.6800000
 augmentation part      348.0000000 magnetization      58.6800000

 Free energy of the ion-electron system (eV)
  ---------------------------------------------------
  alpha Z        PSCENC =       531.45123412
  Ewald energy   TEWEN  =    169067.97151515
  -Hartree energ DENC   =   -198154.73158292
  -exchange      EXHF   =         0.00000000
  -V(xc)+E(xc)   XCENC  =       688.14829493
  PAW double counting   =     26630.57327339   -28542.34909215
  entropy T*S    EENTRO =         0.01203500
  eigenvalues    EBANDS =      2202.95546458
  atomic energy  EATOM  =     30229.39509126
  Solvation contrib.  Ediel  =         0.00000000
  ---------------------------------------------------
  free energy    TOTEN  =      2653.42623336 eV

  energy without entropy =     2653.41419836  energy(sigma->0) =     2653.42322461


--------------------------------------------------------------------------------------------------------




----------------------------------------- Iteration    1(   2)  ---------------------------------------


     EDDAV:  cpu time   19.24: real time   19.24
       DOS:  cpu time    0.00: real time    0.00
    --------------------------------------------
      LOOP:  cpu time   19.24: real time   19.24

 eigenvalue-minimisations  :  4800
 total energy-change (2. order) :-0.2663486E+04  (-0.2493894E+04)
 number of electron     348.0000000 magnetization      58.6800000
 augmentation part      348.0000000 magnetization      58.6800000

 Free energy of the ion-electron system (eV)
  ---------------------------------------------------
  alpha Z        PSCENC =       531.45123412
  Ewald energy   TEWEN  =    169067.97151515
  -Hartree energ DENC   =   -198154.73158292
  -exchange      EXHF   =         0.00000000
  -V(xc)+E(xc)   XCENC  =       688.14829493
  PAW double counting   =     26630.57327339   -28542.34909215
  entropy T*S    EENTRO =         0.00420269
  eigenvalues    EBANDS =      -460.52231072
  atomic energy  EATOM  =     30229.39509126
  Solvation contrib.  Ediel  =         0.00000000
  ---------------------------------------------------
  free energy    TOTEN  =       -10.05937425 eV

  energy without entropy =      -10.06357694  energy(sigma->0) =      -10.06042492


--------------------------------------------------------------------------------------------------------




----------------------------------------- Iteration    1(   3)  ---------------------------------------


     EDDAV:  cpu time   23.98: real time   23.98
       DOS:  cpu time    0.00: real time    0.00
    --------------------------------------------
      LOOP:  cpu time   23.98: real time   23.98

 eigenvalue-minimisations  :  6008
 total energy-change (2. order) :-0.3028987E+03  (-0.2666159E+03)
 number of electron     348.0000000 magnetization      58.6800000
 augmentation part      348.0000000 magnetization      58.6800000

 Free energy of the ion-electron system (eV)
  ---------------------------------------------------
  alpha Z        PSCENC =       531.45123412
  Ewald energy   TEWEN  =    169067.97151515
  -Hartree energ DENC   =   -198154.73158292
  -exchange      EXHF   =         0.00000000
  -V(xc)+E(xc)   XCENC  =       688.14829493
  PAW double counting   =     26630.57327339   -28542.34909215
  entropy T*S    EENTRO =         0.10859786
  eigenvalues    EBANDS =      -763.52538719
  atomic energy  EATOM  =     30229.39509126
  Solvation contrib.  Ediel  =         0.00000000
  ---------------------------------------------------
  free energy    TOTEN  =      -312.95805555 eV

  energy without entropy =     -313.06665341  energy(sigma->0) =     -312.98520502


--------------------------------------------------------------------------------------------------------




----------------------------------------- Iteration    1(   4)  ---------------------------------------


     EDDAV:  cpu time   24.51: real time   24.51
       DOS:  cpu time    0.00: real time    0.00
    --------------------------------------------
      LOOP:  cpu time   24.51: real time   24.51

 eigenvalue-minimisations  :  5792
 total energy-change (2. order) :-0.2563882E+02  (-0.2458003E+02)
 number of electron     348.0000000 magnetization      58.6800000
 augmentation part      348.0000000 magnetization      58.6800000

 Free energy of the ion-electron system (eV)
  ---------------------------------------------------
  alpha Z        PSCENC =       531.45123412
  Ewald energy   TEWEN  =    169067.97151515
  -Hartree energ DENC   =   -198154.73158292
  -exchange      EXHF   =         0.00000000
  -V(xc)+E(xc)   XCENC  =       688.14829493
  PAW double counting   =     26630.57327339   -28542.34909215
  entropy T*S    EENTRO =         0.10160794
  eigenvalues    EBANDS =      -789.15721994
  atomic energy  EATOM  =     30229.39509126
  Solvation contrib.  Ediel  =         0.00000000
  ---------------------------------------------------
  free energy    TOTEN  =      -338.59687822 eV

  energy without entropy =     -338.69848616  energy(sigma->0) =     -338.62228021


--------------------------------------------------------------------------------------------------------




----------------------------------------- Iteration    1(   5)  ---------------------------------------


     EDDAV:  cpu time   28.67: real time   28.67
       DOS:  cpu time    0.00: real time    0.00
    CHARGE:  cpu time    0.81: real time    0.81
    MIXING:  cpu time    0.00: real time    0.01
    --------------------------------------------
      LOOP:  cpu time   29.49: real time   29.49

 eigenvalue-minimisations  :  5864
 total energy-change (2. order) :-0.8673894E+00  (-0.8622842E+00)
 number of electron     347.9998902 magnetization      58.3367494
 augmentation part      166.4296066 magnetization      46.2608011

 Broyden mixing:
  rms(total) = 0.64973E+01    rms(broyden)= 0.64970E+01
  rms(prec ) = 0.67605E+01
  weight for this iteration     100.00

 Free energy of the ion-electron system (eV)
  ---------------------------------------------------
  alpha Z        PSCENC =       531.45123412
  Ewald energy   TEWEN  =    169067.97151515
  -Hartree energ DENC   =   -198154.73158292
  -exchange      EXHF   =         0.00000000
  -V(xc)+E(xc)   XCENC  =       688.14829493
  PAW double counting   =     26630.57327339   -28542.34909215
  entropy T*S    EENTRO =         0.09907970
  eigenvalues    EBANDS =      -790.02208107
  atomic energy  EATOM  =     30229.39509126
  Solvation contrib.  Ediel  =         0.00000000
  ---------------------------------------------------
  free energy    TOTEN  =      -339.46426759 eV

  energy without entropy =     -339.56334729  energy(sigma->0) =     -339.48903752


--------------------------------------------------------------------------------------------------------




----------------------------------------- Iteration    1(   6)  ---------------------------------------


    POTLOK:  cpu time    0.28: real time    0.29
    SETDIJ:  cpu time    0.04: real time    0.03
     EDDAV:  cpu time   27.20: real time   27.20
       DOS:  cpu time    0.00: real time    0.00
    CHARGE:  cpu time    0.78: real time    0.78
    MIXING:  cpu time    0.00: real time    0.01
    --------------------------------------------
      LOOP:  cpu time   28.30: real time   28.31

 eigenvalue-minimisations  :  6032
 total energy-change (2. order) :-0.6703818E+02  (-0.3729889E+02)
 number of electron     347.9998411 magnetization      57.8039645
 augmentation part      190.1257994 magnetization      51.3499231

 Broyden mixing:
  rms(total) = 0.12957E+02    rms(broyden)= 0.12957E+02
  rms(prec ) = 0.14337E+02
  weight for this iteration     100.00

 eigenvalues of (default mixing * dielectric matrix)
  average eigenvalue GAMMA=   0.2326
  0.2326

 Free energy of the ion-electron system (eV)
  ---------------------------------------------------
  alpha Z        PSCENC =       531.45123412
  Ewald energy   TEWEN  =    169067.97151515
  -Hartree energ DENC   =   -197738.13132222
  -exchange      EXHF   =         0.00000000
  -V(xc)+E(xc)   XCENC  =       662.71717970
  PAW double counting   =     29422.85742143   -31145.09908664
  entropy T*S    EENTRO =         0.00555995
  eigenvalues    EBANDS =     -1437.67003750
  atomic energy  EATOM  =     30229.39509126
  Solvation contrib.  Ediel  =         0.00000000
  ---------------------------------------------------
  free energy    TOTEN  =      -406.50244474 eV

  energy without entropy =     -406.50800469  energy(sigma->0) =     -406.50383472


--------------------------------------------------------------------------------------------------------




----------------------------------------- Iteration    1(   7)  ---------------------------------------


    POTLOK:  cpu time    0.24: real time    0.24
    SETDIJ:  cpu time    0.04: real time    0.03
     EDDAV:  cpu time   26.03: real time   26.04
       DOS:  cpu time    0.00: real time    0.00
    CHARGE:  cpu time    1.02: real time    1.02
    MIXING:  cpu time    0.00: real time    0.01
    --------------------------------------------
      LOOP:  cpu time   27.34: real time   27.34

 eigenvalue-minimisations  :  5320
 total energy-change (2. order) : 0.5272592E+02  (-0.2491782E+02)
 number of electron     347.9998939 magnetization      56.9773461
 augmentation part      195.8139120 magnetization      47.4225536

 Broyden mixing:
  rms(total) = 0.97374E+01    rms(broyden)= 0.97370E+01
  rms(prec ) = 0.11225E+02
  weight for this iteration     100.00

 eigenvalues of (default mixing * dielectric matrix)
  average eigenvalue GAMMA=   0.3197
  0.5089  0.1306

 Free energy of the ion-electron system (eV)
  ---------------------------------------------------
  alpha Z        PSCENC =       531.45123412
  Ewald energy   TEWEN  =    169067.97151515
  -Hartree energ DENC   =   -197504.72815816
  -exchange      EXHF   =         0.00000000
  -V(xc)+E(xc)   XCENC  =       661.53201052
  PAW double counting   =     29970.37133248   -31722.69012912
  entropy T*S    EENTRO =         0.01948494
  eigenvalues    EBANDS =     -1587.09890374
  atomic energy  EATOM  =     30229.39509126
  Solvation contrib.  Ediel  =         0.00000000
  ---------------------------------------------------
  free energy    TOTEN  =      -353.77652256 eV

  energy without entropy =     -353.79600749  energy(sigma->0) =     -353.78139379


--------------------------------------------------------------------------------------------------------




----------------------------------------- Iteration    1(   8)  ---------------------------------------


    POTLOK:  cpu time    0.28: real time    0.28
    SETDIJ:  cpu time    0.04: real time    0.03
     EDDAV:  cpu time   28.96: real time   28.96
       DOS:  cpu time    0.00: real time    0.00
    CHARGE:  cpu time    0.82: real time    0.82
    MIXING:  cpu time    0.00: real time    0.01
    --------------------------------------------
      LOOP:  cpu time   30.10: real time   30.10

 eigenvalue-minimisations  :  6088
 total energy-change (2. order) :-0.1267706E+02  (-0.1175684E+02)
 number of electron     347.9998357 magnetization      56.5617289
 augmentation part      189.6939946 magnetization      49.5106384

 Broyden mixing:
  rms(total) = 0.10139E+02    rms(broyden)= 0.10139E+02
  rms(prec ) = 0.12877E+02
  weight for this iteration     100.00

 eigenvalues of (default mixing * dielectric matrix)
  average eigenvalue GAMMA=   0.2919
  0.5148  0.2486  0.1123

 Free energy of the ion-electron system (eV)
  ---------------------------------------------------
  alpha Z        PSCENC =       531.45123412
  Ewald energy   TEWEN  =    169067.97151515
  -Hartree energ DENC   =   -197941.69170937
  -exchange      EXHF   =         0.00000000
  -V(xc)+E(xc)   XCENC  =       664.23285238
  PAW double counting   =     31210.69446303   -33045.45482441
  entropy T*S    EENTRO =        -0.01377282
  eigenvalues    EBANDS =     -1083.03843163
  atomic energy  EATOM  =     30229.39509126
  Solvation contrib.  Ediel  =         0.00000000
  ---------------------------------------------------
  free energy    TOTEN  =      -366.45358228 eV

  energy without entropy =     -366.43980946  energy(sigma->0) =     -366.45013908


--------------------------------------------------------------------------------------------------------




----------------------------------------- Iteration    1(   9)  ---------------------------------------


    POTLOK:  cpu time    0.24: real time    0.23
    SETDIJ:  cpu time    0.03: real time    0.03
     EDDAV:  cpu time   30.10: real time   30.10
       DOS:  cpu time    0.00: real time    0.00
    CHARGE:  cpu time    0.82: real time    0.82
    MIXING:  cpu time    0.00: real time    0.01
    --------------------------------------------
      LOOP:  cpu time   31.19: real time   31.19

 eigenvalue-minimisations  :  7192
 total energy-change (2. order) : 0.3164023E+02  (-0.6441541E+01)
 number of electron     347.9998688 magnetization      55.9236955
 augmentation part      186.0062413 magnetization      47.5440813

 Broyden mixing:
  rms(total) = 0.80369E+01    rms(broyden)= 0.80365E+01
  rms(prec ) = 0.10479E+02
  weight for this iteration     100.00

 eigenvalues of (default mixing * dielectric matrix)
  average eigenvalue GAMMA=   0.3290
  0.5595  0.5595  0.1143  0.0827

 Free energy of the ion-electron system (eV)
  ---------------------------------------------------
  alpha Z        PSCENC =       531.45123412
  Ewald energy   TEWEN  =    169067.97151515
  -Hartree energ DENC   =   -197988.18978187
  -exchange      EXHF   =         0.00000000
  -V(xc)+E(xc)   XCENC  =       665.08405788
  PAW double counting   =     31570.38071281   -33426.77067911
  entropy T*S    EENTRO =        -0.00197594
  eigenvalues    EBANDS =      -984.13352192
  atomic energy  EATOM  =     30229.39509126
  Solvation contrib.  Ediel  =         0.00000000
  ---------------------------------------------------
  free energy    TOTEN  =      -334.81334762 eV

  energy without entropy =     -334.81137168  energy(sigma->0) =     -334.81285364


--------------------------------------------------------------------------------------------------------




----------------------------------------- Iteration    1(  10)  ---------------------------------------


    POTLOK:  cpu time    0.31: real time    0.31
    SETDIJ:  cpu time    0.04: real time    0.05
     EDDAV:  cpu time   26.90: real time   26.89
       DOS:  cpu time    0.00: real time    0.00
    CHARGE:  cpu time    0.78: real time    0.78
    MIXING:  cpu time    0.01: real time    0.01
    --------------------------------------------
      LOOP:  cpu time   28.03: real time   28.03

 eigenvalue-minimisations  :  5760
 total energy-change (2. order) :-0.3522757E+02  (-0.7423250E+01)
 number of electron     347.9998656 magnetization      54.5411884
 augmentation part      186.9802313 magnetization      46.7657447

 Broyden mixing:
  rms(total) = 0.11460E+02    rms(broyden)= 0.11460E+02
  rms(prec ) = 0.14080E+02
  weight for this iteration     100.00

 eigenvalues of (default mixing * dielectric matrix)
  average eigenvalue GAMMA=   0.3734
  0.7844  0.7844  0.1172  0.1172  0.0638

 Free energy of the ion-electron system (eV)
  ---------------------------------------------------
  alpha Z        PSCENC =       531.45123412
  Ewald energy   TEWEN  =    169067.97151515
  -Hartree energ DENC   =   -197987.57287088
  -exchange      EXHF   =         0.00000000
  -V(xc)+E(xc)   XCENC  =       665.85143908
  PAW double counting   =     31962.83358698   -33835.62899066
  entropy T*S    EENTRO =        -0.02015421
  eigenvalues    EBANDS =     -1004.32176535
  atomic energy  EATOM  =     30229.39509126
  Solvation contrib.  Ediel  =         0.00000000
  ---------------------------------------------------
  free energy    TOTEN  =      -370.04091452 eV

  energy without entropy =     -370.02076030  energy(sigma->0) =     -370.03587597


--------------------------------------------------------------------------------------------------------




----------------------------------------- Iteration    1(  11)  ---------------------------------------


    POTLOK:  cpu time    0.24: real time    0.24
    SETDIJ:  cpu time    0.04: real time    0.04
     EDDAV:  cpu time   26.40: real time   26.40
       DOS:  cpu time    0.00: real time    0.00
    CHARGE:  cpu time    0.76: real time    0.76
    MIXING:  cpu time    0.00: real time    0.01
    --------------------------------------------
      LOOP:  cpu time   27.45: real time   27.45

 eigenvalue-minimisations  :  5744
 total energy-change (2. order) : 0.5478392E+02  (-0.4917831E+01)
 number of electron     347.9998891 magnetization      54.2173415
 augmentation part      187.2260538 magnetization      42.7868158

 Broyden mixing:
  rms(total) = 0.76388E+01    rms(broyden)= 0.76385E+01
  rms(prec ) = 0.89213E+01
  weight for this iteration     100.00

 eigenvalues of (default mixing * dielectric matrix)
  average eigenvalue GAMMA=   0.3380
  0.8033  0.8033  0.1328  0.1141  0.1141  0.0602

 Free energy of the ion-electron system (eV)
  ---------------------------------------------------
  alpha Z        PSCENC =       531.45123412
  Ewald energy   TEWEN  =    169067.97151515
  -Hartree energ DENC   =   -197946.27291567
  -exchange      EXHF   =         0.00000000
  -V(xc)+E(xc)   XCENC  =       668.64406614
  PAW double counting   =     32653.63549978   -34552.48191955
  entropy T*S    EENTRO =        -0.02424166
  eigenvalues    EBANDS =      -967.57532396
  atomic energy  EATOM  =     30229.39509126
  Solvation contrib.  Ediel  =         0.00000000
  ---------------------------------------------------
  free energy    TOTEN  =      -315.25699438 eV

  energy without entropy =     -315.23275273  energy(sigma->0) =     -315.25093397


--------------------------------------------------------------------------------------------------------




----------------------------------------- Iteration    1(  12)  ---------------------------------------


    POTLOK:  cpu time    0.26: real time    0.26
    SETDIJ:  cpu time    0.04: real time    0.04
     EDDAV:  cpu time   24.50: real time   24.50
       DOS:  cpu time    0.00: real time    0.00
    CHARGE:  cpu time    0.77: real time    0.77
    MIXING:  cpu time    0.01: real time    0.01
    --------------------------------------------
      LOOP:  cpu time   25.58: real time   25.58

 eigenvalue-minimisations  :  5488
 total energy-change (2. order) : 0.2714265E+02  (-0.2678103E+01)
 number of electron     347.9998837 magnetization      54.0948042
 augmentation part      186.1673780 magnetization      40.8179235

 Broyden mixing:
  rms(total) = 0.39177E+01    rms(broyden)= 0.39175E+01
  rms(prec ) = 0.42422E+01
  weight for this iteration     100.00

 eigenvalues of (default mixing * dielectric matrix)
  average eigenvalue GAMMA=   0.3271
  1.0332  0.5190  0.3233  0.1290  0.1290  0.0957  0.0602

 Free energy of the ion-electron system (eV)
  ---------------------------------------------------
  alpha Z        PSCENC =       531.45123412
  Ewald energy   TEWEN  =    169067.97151515
  -Hartree energ DENC   =   -197968.04891768
  -exchange      EXHF   =         0.00000000
  -V(xc)+E(xc)   XCENC  =       669.78887375
  PAW double counting   =     32844.70097483   -34749.89450917
  entropy T*S    EENTRO =         0.00870101
  eigenvalues    EBANDS =      -913.48731160
  atomic energy  EATOM  =     30229.39509126
  Solvation contrib.  Ediel  =         0.00000000
  ---------------------------------------------------
  free energy    TOTEN  =      -288.11434833 eV

  energy without entropy =     -288.12304935  energy(sigma->0) =     -288.11652359


--------------------------------------------------------------------------------------------------------




----------------------------------------- Iteration    1(  13)  ---------------------------------------


    POTLOK:  cpu time    0.24: real time    0.24
    SETDIJ:  cpu time    0.05: real time    0.05
     EDDAV:  cpu time   23.01: real time   23.01
       DOS:  cpu time    0.00: real time    0.00
    CHARGE:  cpu time    0.81: real time    0.81
    MIXING:  cpu time    0.01: real time    0.01
    --------------------------------------------
      LOOP:  cpu time   24.13: real time   24.13

 eigenvalue-minimisations  :  5184
 total energy-change (2. order) :-0.1514565E+01  (-0.1368351E+01)
 number of electron     347.9998793 magnetization      54.1519106
 augmentation part      184.9139862 magnetization      42.4281893

 Broyden mixing:
  rms(total) = 0.33545E+01    rms(broyden)= 0.33544E+01
  rms(prec ) = 0.37410E+01
  weight for this iteration     100.00

 eigenvalues of (default mixing * dielectric matrix)
  average eigenvalue GAMMA=   0.3247
  1.1191  0.4167  0.3333  0.3333  0.1216  0.1216  0.0927  0.0595

 Free energy of the ion-electron system (eV)
  ---------------------------------------------------
  alpha Z        PSCENC =       531.45123412
  Ewald energy   TEWEN  =    169067.97151515
  -Hartree energ DENC   =   -198037.51669865
  -exchange      EXHF   =         0.00000000
  -V(xc)+E(xc)   XCENC  =       670.39421191
  PAW double counting   =     33169.52000617   -35082.31536802
  entropy T*S    EENTRO =         0.02142027
  eigenvalues    EBANDS =      -838.55032510
  atomic energy  EATOM  =     30229.39509126
  Solvation contrib.  Ediel  =         0.00000000
  ---------------------------------------------------
  free energy    TOTEN  =      -289.62891289 eV

  energy without entropy =     -289.65033315  energy(sigma->0) =     -289.63426795


--------------------------------------------------------------------------------------------------------




----------------------------------------- Iteration    1(  14)  ---------------------------------------


    POTLOK:  cpu time    0.28: real time    0.28
    SETDIJ:  cpu time    0.04: real time    0.03
     EDDAV:  cpu time   24.08: real time   24.09
       DOS:  cpu time    0.00: real time    0.00
    CHARGE:  cpu time    0.80: real time    0.79
    MIXING:  cpu time    0.01: real time    0.01
    --------------------------------------------
      LOOP:  cpu time   25.20: real time   25.20

 eigenvalue-minimisations  :  5216
 total energy-change (2. order) :-0.4502299E+00  (-0.9578858E+00)
 number of electron     347.9998733 magnetization      54.2627222
 augmentation part      184.7620893 magnetization      42.9047250

 Broyden mixing:
  rms(total) = 0.27015E+01    rms(broyden)= 0.27014E+01
  rms(prec ) = 0.28875E+01
  weight for this iteration     100.00

 eigenvalues of (default mixing * dielectric matrix)
  average eigenvalue GAMMA=   0.3629
  1.2237  0.5097  0.5097  0.5125  0.1222  0.1222  0.1092  0.0972  0.0596

 Free energy of the ion-electron system (eV)
  ---------------------------------------------------
  alpha Z        PSCENC =       531.45123412
  Ewald energy   TEWEN  =    169067.97151515
  -Hartree energ DENC   =   -198059.96263102
  -exchange      EXHF   =         0.00000000
  -V(xc)+E(xc)   XCENC  =       670.56638287
  PAW double counting   =     33252.91171255   -35166.41531715
  entropy T*S    EENTRO =         0.00338861
  eigenvalues    EBANDS =      -816.00051913
  atomic energy  EATOM  =     30229.39509126
  Solvation contrib.  Ediel  =         0.00000000
  ---------------------------------------------------
  free energy    TOTEN  =      -290.07914274 eV

  energy without entropy =     -290.08253135  energy(sigma->0) =     -290.07998990


--------------------------------------------------------------------------------------------------------




----------------------------------------- Iteration    1(  15)  ---------------------------------------


    POTLOK:  cpu time    0.24: real time    0.24
    SETDIJ:  cpu time    0.03: real time    0.03
     EDDAV:  cpu time   24.92: real time   24.92
       DOS:  cpu time    0.00: real time    0.00
    CHARGE:  cpu time    0.80: real time    0.80
    MIXING:  cpu time    0.01: real time    0.01
    --------------------------------------------
      LOOP:  cpu time   26.00: real time   26.00

 eigenvalue-minimisations  :  5392
 total energy-change (2. order) :-0.1009202E+01  (-0.6318933E+00)
 number of electron     347.9998797 magnetization      54.3066268
 augmentation part      184.8949931 magnetization      43.9547722

 Broyden mixing:
  rms(total) = 0.20384E+01    rms(broyden)= 0.20383E+01
  rms(prec ) = 0.22296E+01
  weight for this iteration     100.00

 eigenvalues of (default mixing * dielectric matrix)
  average eigenvalue GAMMA=   0.3715
  1.3104  0.5931  0.5931  0.3973  0.3094  0.1259  0.1259  0.0596  0.1003  0.1003

 Free energy of the ion-electron system (eV)
  ---------------------------------------------------
  alpha Z        PSCENC =       531.45123412
  Ewald energy   TEWEN  =    169067.97151515
  -Hartree energ DENC   =   -198048.61349139
  -exchange      EXHF   =         0.00000000
  -V(xc)+E(xc)   XCENC  =       670.28415140
  PAW double counting   =     33389.02295537   -35300.89383927
  entropy T*S    EENTRO =        -0.01460287
  eigenvalues    EBANDS =      -829.69135876
  atomic energy  EATOM  =     30229.39509126
  Solvation contrib.  Ediel  =         0.00000000
  ---------------------------------------------------
  free energy    TOTEN  =      -291.08834499 eV

  energy without entropy =     -291.07374213  energy(sigma->0) =     -291.08469428


--------------------------------------------------------------------------------------------------------




----------------------------------------- Iteration    1(  16)  ---------------------------------------


    POTLOK:  cpu time    0.26: real time    0.26
    SETDIJ:  cpu time    0.04: real time    0.04
     EDDAV:  cpu time   23.08: real time   23.08
       DOS:  cpu time    0.00: real time    0.00
    CHARGE:  cpu time    0.82: real time    0.82
    MIXING:  cpu time    0.01: real time    0.01
    --------------------------------------------
      LOOP:  cpu time   24.22: real time   24.22

 eigenvalue-minimisations  :  5448
 total energy-change (2. order) :-0.1840536E+01  (-0.3901986E+00)
 number of electron     347.9998756 magnetization      54.3031272
 augmentation part      185.1242938 magnetization      44.6859356

 Broyden mixing:
  rms(total) = 0.21901E+01    rms(broyden)= 0.21900E+01
  rms(prec ) = 0.23328E+01
  weight for this iteration     100.00

 eigenvalues of (default mixing * dielectric matrix)
  average eigenvalue GAMMA=   0.3934
  1.4137  0.6904  0.6904  0.4455  0.4455  0.0596  0.1280  0.1280  0.0999  0.1054
  0.1212

 Free energy of the ion-electron system (eV)
  ---------------------------------------------------
  alpha Z        PSCENC =       531.45123412
  Ewald energy   TEWEN  =    169067.97151515
  -Hartree energ DENC   =   -198059.77573747
  -exchange      EXHF   =         0.00000000
  -V(xc)+E(xc)   XCENC  =       670.03592732
  PAW double counting   =     33514.27357419   -35425.32020818
  entropy T*S    EENTRO =         0.00128883
  eigenvalues    EBANDS =      -820.96156656
  atomic energy  EATOM  =     30229.39509126
  Solvation contrib.  Ediel  =         0.00000000
  ---------------------------------------------------
  free energy    TOTEN  =      -292.92888133 eV

  energy without entropy =     -292.93017016  energy(sigma->0) =     -292.92920354


--------------------------------------------------------------------------------------------------------




----------------------------------------- Iteration    1(  17)  ---------------------------------------


    POTLOK:  cpu time    0.23: real time    0.23
    SETDIJ:  cpu time    0.03: real time    0.03
     EDDAV:  cpu time   22.36: real time   22.36
       DOS:  cpu time    0.00: real time    0.00
    CHARGE:  cpu time    0.80: real time    0.80
    MIXING:  cpu time    0.01: real time    0.01
    --------------------------------------------
      LOOP:  cpu time   23.43: real time   23.43

 eigenvalue-minimisations  :  4992
 total energy-change (2. order) :-0.2126389E+00  (-0.3023896E+00)
 number of electron     347.9998771 magnetization      54.4082585
 augmentation part      185.5359358 magnetization      45.5946924

 Broyden mixing:
  rms(total) = 0.14626E+01    rms(broyden)= 0.14625E+01
  rms(prec ) = 0.15743E+01
  weight for this iteration     100.00

 eigenvalues of (default mixing * dielectric matrix)
  average eigenvalue GAMMA=   0.4037
  1.4224  0.7987  0.7987  0.4193  0.4193  0.3564  0.0596  0.1245  0.1245  0.0993
  0.0993  0.1225

 Free energy of the ion-electron system (eV)
  ---------------------------------------------------
  alpha Z        PSCENC =       531.45123412
  Ewald energy   TEWEN  =    169067.97151515
  -Hartree energ DENC   =   -198068.47977746
  -exchange      EXHF   =         0.00000000
  -V(xc)+E(xc)   XCENC  =       669.88198461
  PAW double counting   =     33702.34051827   -35612.59963985
  entropy T*S    EENTRO =         0.01117313
  eigenvalues    EBANDS =      -813.11361945
  atomic energy  EATOM  =     30229.39509126
  Solvation contrib.  Ediel  =         0.00000000
  ---------------------------------------------------
  free energy    TOTEN  =      -293.14152021 eV

  energy without entropy =     -293.15269334  energy(sigma->0) =     -293.14431349


--------------------------------------------------------------------------------------------------------




----------------------------------------- Iteration    1(  18)  ---------------------------------------


    POTLOK:  cpu time    0.25: real time    0.25
    SETDIJ:  cpu time    0.03: real time    0.04
     EDDAV:  cpu time   23.82: real time   23.82
       DOS:  cpu time    0.00: real time    0.00
    CHARGE:  cpu time    0.84: real time    0.83
    MIXING:  cpu time    0.02: real time    0.01
    --------------------------------------------
      LOOP:  cpu time   24.96: real time   24.96

 eigenvalue-minimisations  :  5136
 total energy-change (2. order) :-0.1256514E+01  (-0.1860698E+00)
 number of electron     347.9998760 magnetization      54.7466951
 augmentation part      185.7112627 magnetization      46.4817032

 Broyden mixing:
  rms(total) = 0.15080E+01    rms(broyden)= 0.15080E+01
  rms(prec ) = 0.16279E+01
  weight for this iteration     100.00

 eigenvalues of (default mixing * dielectric matrix)
  average eigenvalue GAMMA=   0.4392
  1.4369  0.9950  0.9950  0.5537  0.4797  0.4797  0.0596  0.1264  0.1264  0.1014
  0.1014  0.1319  0.1221

 Free energy of the ion-electron system (eV)
  ---------------------------------------------------
  alpha Z        PSCENC =       531.45123412
  Ewald energy   TEWEN  =    169067.97151515
  -Hartree energ DENC   =   -198076.78687635
  -exchange      EXHF   =         0.00000000
  -V(xc)+E(xc)   XCENC  =       669.91759540
  PAW double counting   =     33744.32757591   -35653.88504495
  entropy T*S    EENTRO =         0.00305819
  eigenvalues    EBANDS =      -806.79218263
  atomic energy  EATOM  =     30229.39509126
  Solvation contrib.  Ediel  =         0.00000000
  ---------------------------------------------------
  free energy    TOTEN  =      -294.39803390 eV

  energy without entropy =     -294.40109209  energy(sigma->0) =     -294.39879845


--------------------------------------------------------------------------------------------------------




----------------------------------------- Iteration    1(  19)  ---------------------------------------


    POTLOK:  cpu time    0.24: real time    0.25
    SETDIJ:  cpu time    0.04: real time    0.03
     EDDAV:  cpu time   25.98: real time   25.98
       DOS:  cpu time    0.00: real time    0.00
    CHARGE:  cpu time    0.77: real time    0.77
    MIXING:  cpu time    0.01: real time    0.01
    --------------------------------------------
      LOOP:  cpu time   27.04: real time   27.05

 eigenvalue-minimisations  :  5736
 total energy-change (2. order) :-0.1663394E+01  (-0.3069310E+00)
 number of electron     347.9998765 magnetization      54.9837777
 augmentation part      186.0399720 magnetization      48.0869877

 Broyden mixing:
  rms(total) = 0.11787E+01    rms(broyden)= 0.11786E+01
  rms(prec ) = 0.13366E+01
  weight for this iteration     100.00

 eigenvalues of (default mixing * dielectric matrix)
  average eigenvalue GAMMA=   0.4670
  1.4482  1.1171  1.1171  0.5590  0.5590  0.4884  0.4884  0.0596  0.1254  0.1254
  0.1346  0.1003  0.1003  0.1144

 Free energy of the ion-electron system (eV)
  ---------------------------------------------------
  alpha Z        PSCENC =       531.45123412
  Ewald energy   TEWEN  =    169067.97151515
  -Hartree energ DENC   =   -198092.94156423
  -exchange      EXHF   =         0.00000000
  -V(xc)+E(xc)   XCENC  =       670.98873988
  PAW double counting   =     33820.65384558   -35728.22378099
  entropy T*S    EENTRO =         0.01419401
  eigenvalues    EBANDS =      -795.37070227
  atomic energy  EATOM  =     30229.39509126
  Solvation contrib.  Ediel  =         0.00000000
  ---------------------------------------------------
  free energy    TOTEN  =      -296.06142748 eV

  energy without entropy =     -296.07562149  energy(sigma->0) =     -296.06497598


--------------------------------------------------------------------------------------------------------




----------------------------------------- Iteration    1(  20)  ---------------------------------------


    POTLOK:  cpu time    0.23: real time    0.23
    SETDIJ:  cpu time    0.04: real time    0.04
     EDDAV:  cpu time   22.68: real time   22.68
       DOS:  cpu time    0.00: real time    0.00
    CHARGE:  cpu time    0.82: real time    0.82
    MIXING:  cpu time    0.01: real time    0.01
    --------------------------------------------
      LOOP:  cpu time   23.79: real time   23.79

 eigenvalue-minimisations  :  5336
 total energy-change (2. order) :-0.5444595E+00  (-0.1480913E+00)
 number of electron     347.9998745 magnetization      55.1739426
 augmentation part      186.1149882 magnetization      48.9222961

 Broyden mixing:
  rms(total) = 0.11412E+01    rms(broyden)= 0.11412E+01
  rms(prec ) = 0.12477E+01
  weight for this iteration     100.00

 eigenvalues of (default mixing * dielectric matrix)
  average eigenvalue GAMMA=   0.4697
  1.4976  1.1096  1.1096  0.6675  0.6675  0.5470  0.5470  0.0596  0.1254  0.1254
  0.1005  0.1005  0.1417  0.1308  0.1152

 Free energy of the ion-electron system (eV)
  ---------------------------------------------------
  alpha Z        PSCENC =       531.45123412
  Ewald energy   TEWEN  =    169067.97151515
  -Hartree energ DENC   =   -198107.31500031
[...]
     22     Co         -0.002         -0.002          0.903
     23     Co          0.005         -0.002          0.889
     24     Co          0.002         -0.004          0.890
     25     Co          0.009          0.002          0.893
     26     Co          0.005         -0.002          0.889
     27     Co         -0.004         -0.005          0.900
     28     Co          0.009          0.019          0.953
     29     Co         -0.004          0.006          1.003
     30     Co         -0.015         -0.007          1.004
     31     Co          0.008          0.032          0.896
     32     Co          0.003          0.006          0.987
     33     Co          0.049          0.049          0.947
     34     Co          0.049          0.049          0.950
     35     Co          0.001          0.018          0.967
     36     Co          0.005          0.009          1.001
     37     C           0.064          0.036          0.666
     38     C          -0.133         -0.116          0.837
     39     C          -0.130         -0.116          0.839
     40     O          -0.194         -0.156          0.998
     41     H           0.058          0.048          0.718
     42     H           0.066          0.046          0.761
     43     H           0.029          0.018          0.812
     44     H           0.060          0.048          0.727
     45     H           0.031          0.018          0.820
     46     H           0.066          0.046          0.763

  dDsC method for vdW energy calculation
  ---------------------------------------------------------------------------------------------

  Parameters of vdW forcefield:
            C6dDsC            XDM            ALPHAts        RELVOL
            (au)              (au)            (au)                
   ---------------------------------------------------------------
   Co        435.193         10.232         50.829          1.017
   Co        448.802         10.313         52.006          1.040
   Co        434.592         10.224         50.798          1.016
   Co        424.466         10.168         49.887          0.998
   Co        428.967         10.193         50.293          1.006
   Co        419.702         10.136         49.484          0.990
   Co        430.864         10.206         50.453          1.009
   Co        431.901         10.211         50.549          1.011
   Co        433.889         10.233         50.673          1.013
   Co        292.134          7.648         45.651          0.913
   Co        287.202          7.640         44.924          0.898
   Co        284.401          7.631         44.537          0.891
   Co        287.021          7.637         44.914          0.898
   Co        288.420          7.639         45.121          0.902
   Co        289.116          7.643         45.207          0.904
   Co        288.617          7.646         45.112          0.902
   Co        287.063          7.638         44.914          0.898
   Co        289.044          7.644         45.190          0.904
   Co        283.928          7.542         44.990          0.900
   Co        281.696          7.548         44.599          0.892
   Co        285.006          7.557         45.074          0.901
   Co        286.131          7.574         45.149          0.903
   Co        279.720          7.524         44.428          0.889
   Co        280.927          7.548         44.476          0.890
   Co        285.171          7.635         44.634          0.893
   Co        281.303          7.563         44.448          0.889
   Co        284.590          7.556         45.013          0.900
   Co        375.285          9.416         47.631          0.953
   Co        420.469         10.018         50.157          1.003
   Co        423.722         10.092         50.176          1.004
   Co        316.932          8.452         44.814          0.896
   Co        411.512          9.966         49.347          0.987
   Co        375.139          9.468         47.348          0.947
   Co        376.827          9.478         47.512          0.950
   Co        383.120          9.466         48.370          0.967
   Co        422.079         10.083         50.027          1.001
   C          31.920          4.775          7.989          0.666
   C          46.768          5.564         10.045          0.837
   C          47.030          5.581         10.071          0.839
   O          26.752          5.933          5.388          0.998
   H           4.594          1.699          3.231          0.718
   H           5.745          2.004          3.426          0.761
   H           7.216          2.361          3.653          0.812
   H           4.694          1.715          3.271          0.727
   H           7.350          2.381          3.689          0.820
   H           5.767          2.007          3.434          0.763

  IVDW =   4
  VDW_RADIUS =    50.000 A
  VDW_S6 aka ATT0 =    13.960
  VDW_SR aka BTT0 =     1.320
  LVDW_ONECELL = F F F

  Number of pair interactions contributing to vdW energy:  473218
  Edisp (eV):   -8.95870
    FORVDW:  cpu time   11.38: real time   11.39

  FORCE on cell =-STRESS in cart. coord.  units (eV):
  Direction    XX          YY          ZZ          XY          YZ          ZX
  --------------------------------------------------------------------------------------
  Alpha Z   531.45123   531.45123   531.45123
  Ewald  187300.57419187379.29485************    67.44748  -104.72726   180.46696
  Hartree194411.27799194484.22405************    62.80272   -63.69086   109.85051
  E(xc)   -1754.74655 -1754.79670 -1756.44442    -0.03991    -0.19876     0.34556
  Local  ************************389057.47638  -139.27023   164.65595  -283.78272
  n-local  -237.29555  -237.46071  -259.53937    -0.18023    -0.21172     0.35978
  augment  5609.82034  5611.13985  5603.14132     1.10508     0.24479    -0.43626
  Kinetic  3101.37865  3110.63546  3119.41628     7.98761     4.02036    -6.93153
  Fock        0.00000     0.00000     0.00000     0.00000     0.00000     0.00000
  vdW       -10.88113   -11.00696    -7.58140    -0.10886     0.02865    -0.04938
  -------------------------------------------------------------------------------------
  Total     -17.89650   -18.15864   -11.08775    -0.25634     0.12115    -0.17708
  in kB     -24.41262   -24.77021   -15.12480    -0.34968     0.16527    -0.24155
  external pressure =      -21.44 kB  Pullay stress =        0.00 kB


 VOLUME and BASIS-vectors are now :
 -----------------------------------------------------------------------------
  energy-cutoff  :      400.00
  volume of cell :     1174.53
      direct lattice vectors                 reciprocal lattice vectors
     7.410000000  0.000000000  0.000000000     0.134952767  0.077914995  0.000000000
    -3.705000000  6.417250000  0.000000000     0.000000000  0.155829989  0.000000000
     0.000000000  0.000000000 24.700000000     0.000000000  0.000000000  0.040485830

  length of vectors
     7.410000000  7.410001522 24.700000000     0.155830021  0.155829989  0.040485830


 FORCES acting on ions
    electron-ion (+dipol)            ewald-force                    non-local-force                 convergence-correction
 -----------------------------------------------------------------------------------------------
   0.133E-01 0.112E+00 0.293E+04   -.245E-01 -.101E+00 -.292E+04   0.229E-01 -.769E-02 -.119E+01   0.111E-02 0.148E-02 0.251E-02
   0.363E-01 0.129E+00 0.293E+04   -.254E-01 -.130E+00 -.292E+04   -.766E-02 0.427E-02 -.121E+01   -.251E-02 -.395E-03 0.181E-02
   -.389E-01 0.255E-01 0.293E+04   0.486E-01 -.328E-01 -.293E+04   -.947E-02 0.593E-02 -.118E+01   0.141E-02 0.854E-03 0.117E-02
   0.376E-01 -.593E-01 0.293E+04   -.523E-01 0.497E-01 -.292E+04   0.150E-01 0.302E-01 -.120E+01   0.182E-02 -.190E-02 0.151E-02
   0.667E-01 -.295E-01 0.293E+04   -.488E-01 0.247E-01 -.293E+04   -.650E-02 0.394E-02 -.120E+01   -.234E-02 -.391E-02 0.211E-02
   -.923E-01 -.848E-01 0.293E+04   0.972E-01 0.809E-01 -.292E+04   -.747E-02 0.432E-02 -.121E+01   0.521E-03 -.209E-02 0.126E-02
   0.766E-01 -.889E-02 0.293E+04   -.710E-01 0.258E-01 -.292E+04   -.186E-01 -.279E-01 -.120E+01   -.201E-02 0.342E-03 0.221E-02
   -.867E-01 -.775E-01 0.293E+04   0.702E-01 0.777E-01 -.292E+04   0.184E-01 -.156E-01 -.119E+01   0.685E-03 0.274E-02 0.261E-02
   0.210E-01 -.232E-01 0.293E+04   -.288E-03 0.768E-02 -.292E+04   -.178E-01 0.106E-01 -.114E+01   0.133E-02 0.287E-02 0.252E-02
   -.163E+01 0.937E+00 0.114E+04   0.163E+01 -.934E+00 -.114E+04   0.191E-01 -.106E-01 -.534E+00   0.251E-02 0.491E-03 0.347E-02
   0.303E+00 0.152E+01 0.114E+04   -.307E+00 -.151E+01 -.114E+04   0.175E-01 -.549E-01 -.336E+00   -.134E-02 0.754E-03 0.196E-02
   0.103E+01 0.153E+01 0.114E+04   -.101E+01 -.152E+01 -.114E+04   -.323E-01 -.509E-01 -.466E+00   -.115E-02 -.949E-03 0.247E-02
   0.195E+01 0.936E+00 0.114E+04   -.196E+01 -.956E+00 -.114E+04   -.307E-01 0.534E-02 -.403E+00   0.724E-03 -.157E-02 0.221E-02
   -.171E+01 0.101E+01 0.114E+04   0.174E+01 -.102E+01 -.114E+04   0.269E-02 -.206E-02 -.429E+00   -.265E-02 -.111E-02 0.312E-02
   -.887E+00 -.179E+01 0.114E+04   0.885E+00 0.177E+01 -.114E+04   0.288E-01 0.542E-01 -.465E+00   0.192E-02 -.196E-03 0.262E-02
   0.105E+01 -.546E+00 0.114E+04   -.103E+01 0.534E+00 -.114E+04   -.451E-01 0.257E-01 -.370E+00   0.215E-03 0.581E-03 0.365E-02
   0.439E-01 -.217E+01 0.113E+04   -.307E-01 0.220E+01 -.114E+04   -.183E-01 0.232E-01 -.403E+00   -.572E-03 -.462E-03 0.564E-02
   -.120E+01 -.103E+01 0.114E+04   0.118E+01 0.103E+01 -.114E+04   0.560E-01 0.113E-01 -.337E+00   0.356E-03 0.246E-02 0.552E-02
   -.189E+01 0.142E+01 -.638E+03   0.189E+01 -.143E+01 0.638E+03   -.124E-02 0.362E-02 0.585E+00   0.210E-02 -.105E-02 0.104E-02
   0.422E+01 0.703E-01 -.665E+03   -.405E+01 -.167E+00 0.665E+03   -.162E+00 0.965E-01 0.240E+00   -.256E-03 -.994E-03 -.748E-03
   -.263E+01 -.502E+01 -.661E+03   0.247E+01 0.490E+01 0.661E+03   0.160E+00 0.125E+00 0.220E+00   -.188E-02 -.262E-03 -.785E-03
   0.371E+00 0.633E+01 -.660E+03   -.445E+00 -.605E+01 0.660E+03   0.734E-01 -.276E+00 0.193E+00   0.952E-03 0.776E-03 0.128E-02
   -.254E+01 0.136E+01 -.652E+03   0.256E+01 -.137E+01 0.652E+03   -.199E-01 0.952E-02 0.656E+00   -.406E-03 0.127E-02 0.278E-03
   0.293E+01 0.488E+01 -.661E+03   -.290E+01 -.468E+01 0.660E+03   -.260E-01 -.208E+00 0.222E+00   -.588E-03 0.264E-02 0.260E-02
   0.270E+01 -.160E+01 -.668E+03   -.251E+01 0.149E+01 0.668E+03   -.181E+00 0.104E+00 0.574E-01   -.142E-02 -.181E-03 0.831E-03
   -.556E+01 -.345E+01 -.660E+03   0.528E+01 0.338E+01 0.660E+03   0.280E+00 0.753E-01 0.189E+00   0.699E-03 -.191E-02 0.311E-03
   0.248E+01 -.373E+01 -.665E+03   -.233E+01 0.363E+01 0.665E+03   -.163E+00 0.102E+00 0.240E+00   0.678E-03 -.306E-03 0.168E-02
   0.176E+02 0.512E+02 -.247E+04   -.178E+02 -.519E+02 0.247E+04   0.218E+00 0.608E+00 0.230E+01   0.280E-03 0.223E-02 0.749E-03
   -.264E+02 0.318E+02 -.252E+04   0.264E+02 -.319E+02 0.251E+04   -.596E-02 0.220E-01 0.137E+01   -.968E-03 0.760E-03 -.836E-03
   0.896E+01 -.499E+01 -.254E+04   -.888E+01 0.494E+01 0.254E+04   -.827E-01 0.493E-01 0.101E+01   0.759E-03 0.291E-02 -.116E-03
   -.832E+02 0.476E+02 -.235E+04   0.871E+02 -.499E+02 0.235E+04   -.391E+01 0.225E+01 0.239E+01   -.122E-02 -.116E-02 -.548E-04
   -.402E+02 0.659E+01 -.252E+04   0.402E+02 -.658E+01 0.251E+04   -.131E-01 -.122E-01 0.137E+01   0.170E-02 0.129E-03 -.104E-02
   0.119E+03 0.357E+02 -.246E+04   -.121E+03 -.371E+02 0.246E+04   0.221E+01 0.138E+01 0.267E+01   -.284E-03 0.477E-04 -.408E-03
   0.284E+02 -.121E+03 -.246E+04   -.283E+02 0.124E+03 0.246E+04   -.942E-01 -.261E+01 0.268E+01   -.184E-02 -.183E-02 -.410E-03
   -.357E+02 -.406E+02 -.247E+04   0.361E+02 0.411E+02 0.247E+04   -.422E+00 -.488E+00 0.230E+01   0.107E-02 -.966E-03 0.313E-03
   0.602E+01 -.320E+01 -.253E+04   -.639E+01 0.342E+01 0.253E+04   0.362E+00 -.208E+00 0.171E+01   0.931E-03 -.171E-02 -.762E-03
   -.747E+02 0.435E+02 -.140E+04   0.812E+02 -.472E+02 0.141E+04   -.645E+01 0.373E+01 -.212E+01   -.282E-03 -.260E-03 0.607E-04
   -.883E+02 -.694E+02 -.137E+04   0.889E+02 0.700E+02 0.137E+04   -.523E+00 -.580E+00 0.284E-01   0.261E-04 -.114E-03 0.128E-03
   0.159E+02 0.111E+03 -.137E+04   -.161E+02 -.112E+03 0.137E+04   0.248E+00 0.746E+00 0.326E-01   -.179E-03 -.124E-04 -.190E-03
   0.184E+03 -.106E+03 -.211E+04   -.213E+03 0.123E+03 0.211E+04   0.285E+02 -.165E+02 -.201E+01   -.114E-02 -.121E-02 -.113E-03
   0.103E+02 -.236E+02 -.351E+03   -.122E+02 0.249E+02 0.356E+03   0.197E+01 -.123E+01 -.481E+01   -.439E-05 0.113E-04 -.122E-03
   -.606E+02 0.160E+02 -.337E+03   0.657E+02 -.184E+02 0.338E+03   -.501E+01 0.234E+01 -.680E+00   0.400E-04 -.191E-04 -.168E-06
   -.173E+02 -.547E+02 -.330E+03   0.180E+02 0.594E+02 0.328E+03   -.661E+00 -.466E+01 0.254E+01   0.136E-04 -.339E-04 0.191E-03
   0.254E+02 0.278E+01 -.351E+03   -.275E+02 -.169E+01 0.356E+03   0.203E+01 -.110E+01 -.481E+01   -.367E-04 -.113E-04 -.165E-03
   0.387E+02 0.425E+02 -.330E+03   -.425E+02 -.454E+02 0.328E+03   0.371E+01 0.293E+01 0.253E+01   -.132E-04 0.682E-04 -.857E-05
   -.443E+02 0.444E+02 -.337E+03   0.488E+02 -.476E+02 0.338E+03   -.454E+01 0.316E+01 -.682E+00   -.272E-04 -.778E-06 -.923E-05
 -----------------------------------------------------------------------------------------------
   -.175E+02 0.101E+02 0.420E+01   -.185E-12 -.512E-12 -.574E-11   0.175E+02 -.101E+02 -.402E+01   -.129E-02 -.120E-02 0.521E-01
 
 
 POSITION                                       TOTAL-FORCE (eV/Angst)
 -----------------------------------------------------------------------------------
      1.23500      0.71303      0.00000         0.011234      0.005411      0.452242
      3.70500      0.71303      0.00000        -0.000664      0.003206      0.439708
      6.17500      0.71303      0.00000         0.000205     -0.000185      0.467599
     -0.00000      2.85211      0.00000         0.000567      0.019062      0.447055
      2.47000      2.85211      0.00000         0.007495     -0.004362      0.456991
      4.94000      2.85211      0.00000        -0.003439     -0.001292      0.439110
      1.23500      4.99118      0.00000        -0.016317     -0.010355      0.447388
      3.70500      4.99118      0.00000         0.001088     -0.012324      0.451937
     -1.23500      4.99118      0.00000         0.002735     -0.001842      0.460055
      0.00000      0.00000      2.01675         0.015222     -0.007654     -0.495035
      2.47000      0.00000      2.01675         0.011258     -0.042619     -0.427627
      4.94000      0.00000      2.01675        -0.012702     -0.038386     -0.452309
      1.23500      2.13908      2.01675        -0.046523     -0.016174     -0.426114
      3.70500      2.13908      2.01675         0.029593     -0.017598     -0.486909
      6.17500      2.13908      2.01675         0.027864      0.032988     -0.452870
      0.00000      4.27816      2.01675        -0.026433      0.014941     -0.467036
      2.47000      4.27816      2.01675        -0.006671      0.049102     -0.425974
      4.94000      4.27816      2.01675         0.043047      0.011137     -0.429513
      6.18108      0.71212      4.03085        -0.003402     -0.003258     -0.003924
      1.25172      0.70612      4.05798        -0.000750     -0.000449      0.000776
      3.70280      0.70097      4.05702        -0.000933      0.000120      0.003631
      0.01218      2.86477      4.06513        -0.001830      0.001335     -0.001395
      2.48273      2.84631      4.04297        -0.001112     -0.001075      0.000733
      4.94973      2.86199      4.05677         0.004348     -0.008556      0.009582
     -1.22886      4.98894      4.07159         0.000547     -0.000583     -0.007650
      1.23190      4.97697      4.06389         0.004281     -0.001719     -0.000845
      3.72207      4.98364      4.05788        -0.007686      0.004861      0.001479
      6.19258      2.10473      5.96765         0.001756     -0.001010     -0.002750
      1.26211      2.13317      5.97252        -0.006945     -0.000759     -0.002036
      3.71606      2.13298      5.97131         0.001042      0.000987     -0.001287
      0.05342      4.24946      6.10877         0.000951     -0.003118     -0.007959
      2.49150      4.26008      5.97180        -0.004686      0.001573     -0.000242
      4.91587      4.24552      6.05267         0.000538     -0.004474      0.004901
      2.48612      0.03720      6.05290         0.004671      0.008459      0.004393
      4.97945      0.00376      5.96692        -0.003830     -0.000300      0.002284
      7.40105      0.00739      5.96437        -0.002036      0.000907     -0.001204
     -0.19549      4.38848      8.08993        -0.001495      0.009803     -0.000448
      0.74094      5.31429      8.82050        -0.004944      0.003677     -0.002840
     -0.52643      3.11597      8.82391        -0.000995      0.001124      0.002121
     -1.28207      5.01577      7.50725         0.000454      0.000913      0.000352
      0.32554      5.55867      9.81716        -0.006050     -0.001348      0.000677
      1.72289      4.84275      8.95816         0.001829      0.000852      0.005387
      0.87727      6.26409      8.27107        -0.000018      0.000796      0.004757
     -0.94271      3.35588      9.82141        -0.004388      0.005452     -0.004264
     -1.28111      2.51971      8.27906        -0.005472      0.001034     -0.003920
      0.37390      2.50257      8.96182        -0.001402      0.001703      0.000991
 -----------------------------------------------------------------------------------
    total drift:                                0.060530     -0.011876      0.231272


--------------------------------------------------------------------------------------------------------



  FREE ENERGIE OF THE ION-ELECTRON SYSTEM (eV)
  ---------------------------------------------------
  free  energy   TOTEN  =      -305.85712482 eV

  energy  without entropy=     -305.86265745  energy(sigma->0) =     -305.85850798
 


--------------------------------------------------------------------------------------------------------


    POTLOK:  cpu time    0.26: real time    0.26


--------------------------------------------------------------------------------------------------------


 stress matrix after NEB project (eV)
    -17.89650     -0.25635     -0.17708
     -0.25634    -18.15864      0.12115
     -0.17707      0.12115    -11.08775
  FORCES: max atom, RMS     0.013562    0.004957
  FORCE total and by dimension    0.033620    0.009803
  Stress total and by dimension   27.806155   18.158638


--------------------------------------------------------------------------------------------------------


  
 reached required accuracy - stopping structural energy minimisation
     LOOP+:  cpu time 1445.28: real time 1445.38
    4ORBIT:  cpu time    0.00: real time    0.00

 total amount of memory used by VASP on root node   182107. kBytes
========================================================================

   base      :      30000. kBytes
   nonlr-proj:       9644. kBytes
   fftplans  :       6203. kBytes
   grid      :      28885. kBytes
   one-center:       1430. kBytes
   wavefun   :     105945. kBytes
 
  
  
 General timing and accounting informations for this job:
 ========================================================
  
                  Total CPU time used (sec):     1450.376
                            User time (sec):     1449.400
                          System time (sec):        0.976
                         Elapsed time (sec):     1451.674
  
                   Maximum memory used (kb):      226632.
                   Average memory used (kb):           0.
  
                          Minor page faults:       260869
                          Major page faults:           75
                 Voluntary context switches:          967
