 vasp.5.3.5 31Mar14 (build Jan 31 2018 16:04:57) complex                        
  
 executed on             LinuxIFC date 2018.12.07  15:43:53
 running on    8 total cores
 distrk:  each k-point on    8 cores,    1 groups
 distr:  one band on NCORES_PER_BAND=   1 cores,    8 groups


--------------------------------------------------------------------------------------------------------


 INCAR:
 POTCAR:    PAW_PBE C 08Apr2002                   
 POTCAR:    PAW_PBE O 08Apr2002                   
 POTCAR:    PAW_PBE H 15Jun2001                   

 ----------------------------------------------------------------------------- 
|                                                                             |
|           W    W    AA    RRRRR   N    N  II  N    N   GGGG   !!!           |
|           W    W   A  A   R    R  NN   N  II  NN   N  G    G  !!!           |
|           W    W  A    A  R    R  N N  N  II  N N  N  G       !!!           |
|           W WW W  AAAAAA  RRRRR   N  N N  II  N  N N  G  GGG   !            |
|           WW  WW  A    A  R   R   N   NN  II  N   NN  G    G                |
|           W    W  A    A  R    R  N    N  II  N    N   GGGG   !!!           |
|                                                                             |
|      For optimal performance we recommend to set                            |
|        NCORE= 4 - approx SQRT( number of cores)                             |
|      NCORE specifies how many cores store one orbital (NPAR=cpu/NCORE).     |
|      This setting can  greatly improve the performance of VASP for DFT.     |
|      The default, NPAR=number of cores might be grossly inefficient         |
|      on modern multi-core architectures or massively parallel machines.     |
|      Do your own testing !!!!                                               |
|      Unfortunately you need to use the default for GW and RPA calculations. |
|      (for HF NCORE is supported but not extensively tested yet)             |
|                                                                             |
 ----------------------------------------------------------------------------- 

 POTCAR:    PAW_PBE C 08Apr2002                   
   VRHFIN =C: s2p2                                                              
   LEXCH  = PE                                                                  
   EATOM  =   147.1560 eV,   10.8157 Ry                                         
                                                                                
   TITEL  = PAW_PBE C 08Apr2002                                                 
   LULTRA =        F    use ultrasoft PP ?                                      
   IUNSCR =        1    unscreen: 0-lin 1-nonlin 2-no                           
   RPACOR =    1.200    partial core radius                                     
   POMASS =   12.011; ZVAL   =    4.000    mass and valenz                      
   RCORE  =    1.500    outmost cutoff radius                                   
   RWIGS  =    1.630; RWIGS  =    0.863    wigner-seitz radius (au A)           
   ENMAX  =  400.000; ENMIN  =  300.000 eV                                      
   ICORE  =        2    local potential                                         
   LCOR   =        T    correct aug charges                                     
   LPAW   =        T    paw PP                                                  
   EAUG   =  644.873                                                            
   DEXC   =    0.000                                                            
   RMAX   =    1.529    core radius for proj-oper                               
   RAUG   =    1.300    factor for augmentation sphere                          
   RDEP   =    1.501    radius for radial grids                                 
   RDEPT  =    1.300    core radius for aug-charge                              
                                                                                
   Atomic configuration                                                         
    4 entries                                                                   
     n  l   j            E        occ.                                          
     1  0  0.50      -273.3789   2.0000                                         
     2  0  0.50       -13.7508   2.0000                                         
     2  1  0.50        -5.2854   2.0000                                         
     3  2  1.50        -5.4423   0.0000                                         
   Description                                                                  
     l       E           TYP  RCUT    TYP  RCUT                                 
     0    -13.7508458     23  1.200                                             
     0     -8.2022199     23  1.200                                             
     1     -5.2854383     23  1.500                                             
     1     34.0145650     23  1.500                                             
     2     -5.4423304      7  1.500                                             
  local pseudopotential read in
  partial core-charges read in
  partial kinetic energy density read in
  atomic valenz-charges read in
  non local Contribution for L=           0  read in
    real space projection operators read in
  non local Contribution for L=           0  read in
    real space projection operators read in
  non local Contribution for L=           1  read in
    real space projection operators read in
  non local Contribution for L=           1  read in
    real space projection operators read in
    PAW grid and wavefunctions read in
 
   number of l-projection  operators is LMAX  =           4
   number of lm-projection operators is LMMAX =           8
 
 POTCAR:    PAW_PBE O 08Apr2002                   
   VRHFIN =O: s2p4                                                              
   LEXCH  = PE                                                                  
   EATOM  =   432.3788 eV,   31.7789 Ry                                         
                                                                                
   TITEL  = PAW_PBE O 08Apr2002                                                 
   LULTRA =        F    use ultrasoft PP ?                                      
   IUNSCR =        1    unscreen: 0-lin 1-nonlin 2-no                           
   RPACOR =    1.200    partial core radius                                     
   POMASS =   16.000; ZVAL   =    6.000    mass and valenz                      
   RCORE  =    1.520    outmost cutoff radius                                   
   RWIGS  =    1.550; RWIGS  =    0.820    wigner-seitz radius (au A)           
   ENMAX  =  400.000; ENMIN  =  300.000 eV                                      
   ICORE  =        2    local potential                                         
   LCOR   =        T    correct aug charges                                     
   LPAW   =        T    paw PP                                                  
   EAUG   =  605.392                                                            
   DEXC   =    0.000                                                            
   RMAX   =    1.553    core radius for proj-oper                               
   RAUG   =    1.300    factor for augmentation sphere                          
   RDEP   =    1.550    radius for radial grids                                 
   RDEPT  =    1.329    core radius for aug-charge                              
                                                                                
   Atomic configuration                                                         
    4 entries                                                                   
     n  l   j            E        occ.                                          
     1  0  0.50      -514.6923   2.0000                                         
     2  0  0.50       -23.9615   2.0000                                         
     2  1  0.50        -9.0305   4.0000                                         
     3  2  1.50        -9.5241   0.0000                                         
   Description                                                                  
     l       E           TYP  RCUT    TYP  RCUT                                 
     0    -23.9615318     23  1.200                                             
     0     -9.5240782     23  1.200                                             
     1     -9.0304911     23  1.520                                             
     1      8.1634956     23  1.520                                             
     2     -9.5240782      7  1.500                                             
  local pseudopotential read in
  partial core-charges read in
  partial kinetic energy density read in
  kinetic energy density of atom read in
  atomic valenz-charges read in
  non local Contribution for L=           0  read in
    real space projection operators read in
  non local Contribution for L=           0  read in
    real space projection operators read in
  non local Contribution for L=           1  read in
    real space projection operators read in
  non local Contribution for L=           1  read in
    real space projection operators read in
    PAW grid and wavefunctions read in
 
   number of l-projection  operators is LMAX  =           4
   number of lm-projection operators is LMMAX =           8
 
 POTCAR:    PAW_PBE H 15Jun2001                   
   VRHFIN =H: ultrasoft test                                                    
   LEXCH  = PE                                                                  
   EATOM  =    12.4884 eV,    0.9179 Ry                                         
                                                                                
   TITEL  = PAW_PBE H 15Jun2001                                                 
   LULTRA =        F    use ultrasoft PP ?                                      
   IUNSCR =        0    unscreen: 0-lin 1-nonlin 2-no                           
   RPACOR =    0.000    partial core radius                                     
   POMASS =    1.000; ZVAL   =    1.000    mass and valenz                      
   RCORE  =    1.100    outmost cutoff radius                                   
   RWIGS  =    0.700; RWIGS  =    0.370    wigner-seitz radius (au A)           
   ENMAX  =  250.000; ENMIN  =  200.000 eV                                      
   RCLOC  =    0.701    cutoff for local pot                                    
   LCOR   =        T    correct aug charges                                     
   LPAW   =        T    paw PP                                                  
   EAUG   =  400.000                                                            
   RMAX   =    1.123    core radius for proj-oper                               
   RAUG   =    1.200    factor for augmentation sphere                          
   RDEP   =    1.112    radius for radial grids                                 
   RDEPT  =    0.926    core radius for aug-charge                              
                                                                                
   Atomic configuration                                                         
    2 entries                                                                   
     n  l   j            E        occ.                                          
     1  0  0.50        -6.4927   1.0000                                         
     2  1  0.50        -3.4015   0.0000                                         
   Description                                                                  
     l       E           TYP  RCUT    TYP  RCUT                                 
     0     -6.4927494     23  1.100                                             
     0      6.8029130     23  1.100                                             
     1     -4.0817478     23  1.100                                             
  local pseudopotential read in
  atomic valenz-charges read in
  non local Contribution for L=           0  read in
    real space projection operators read in
  non local Contribution for L=           0  read in
    real space projection operators read in
  non local Contribution for L=           1  read in
    real space projection operators read in
    PAW grid and wavefunctions read in
 
   number of l-projection  operators is LMAX  =           3
   number of lm-projection operators is LMMAX =           5
 
 Optimization of the real space projectors (new method)

 maximal supplied QI-value         = 25.13
 optimisation between [QCUT,QGAM] = [ 10.05, 20.36] = [ 28.30,116.06] Ry 
 Optimized for a Real-space Cutoff    1.30 Angstroem

   l    n(q)    QCUT    max X(q) W(low)/X(q) W(high)/X(q)  e(spline) 
   0      8    10.053   115.676    0.49E-03    0.72E-03    0.18E-06
   0      8    10.053    87.132    0.49E-03    0.71E-03    0.18E-06
   1      7    10.053     4.429    0.32E-03    0.31E-03    0.18E-06
   1      7    10.053     2.733    0.23E-03    0.19E-03    0.20E-06
 Optimization of the real space projectors (new method)

 maximal supplied QI-value         = 24.76
 optimisation between [QCUT,QGAM] = [ 10.15, 20.30] = [ 28.85,115.39] Ry 
 Optimized for a Real-space Cutoff    1.38 Angstroem

   l    n(q)    QCUT    max X(q) W(low)/X(q) W(high)/X(q)  e(spline) 
   0      8    10.150    20.381    0.22E-03    0.32E-03    0.29E-06
   0      8    10.150    15.268    0.23E-03    0.35E-03    0.30E-06
   1      8    10.150     5.964    0.46E-03    0.53E-03    0.21E-06
   1      8    10.150     5.382    0.38E-03    0.45E-03    0.19E-06
 Optimization of the real space projectors (new method)

 maximal supplied QI-value         = 34.20
 optimisation between [QCUT,QGAM] = [  9.92, 20.18] = [ 27.55,114.04] Ry 
 Optimized for a Real-space Cutoff    1.26 Angstroem

   l    n(q)    QCUT    max X(q) W(low)/X(q) W(high)/X(q)  e(spline) 
   0      8     9.919    19.460    0.50E-03    0.23E-03    0.29E-06
   0      8     9.919    12.209    0.48E-03    0.23E-03    0.28E-06
   1      7     9.919     4.655    0.17E-03    0.75E-03    0.30E-06
  PAW_PBE C 08Apr2002                   :
 energy of atom  1       EATOM= -147.1560
 kinetic energy error for atom=    0.0288 (will be added to EATOM!!)
  PAW_PBE O 08Apr2002                   :
 energy of atom  2       EATOM= -432.3788
 kinetic energy error for atom=    0.1156 (will be added to EATOM!!)
  PAW_PBE H 15Jun2001                   :
 energy of atom  3       EATOM=  -12.4884
 kinetic energy error for atom=    0.0098 (will be added to EATOM!!)
 
 
 POSCAR: CH3CH2OH                                
  positions in direct lattice
  velocities in cartesian coordinates
 exchange correlation table for  LEXCH =        8
   RHO(1)=    0.500       N(1)  =     2000
   RHO(2)=  100.500       N(2)  =     4000

 VTST: version 3.1, (03/28/14)

 CHAIN: initializing optimizer
 
 OPT: Using VASP Dynamics algorithm
 CHAIN: Read ICHAIN            0
 
 POSCAR: CH3CH2OH                                
  positions in direct lattice
  velocities in cartesian coordinates
 


--------------------------------------------------------------------------------------------------------


 ion  position               nearest neighbor table
   1  0.443  0.497  0.470-   5 1.10   6 1.10   7 1.10   2 1.51
   2  0.488  0.499  0.530-   4 1.23   3 1.51   1 1.51
   3  0.563  0.503  0.516-  10 1.10   8 1.10   9 1.10   2 1.51
   4  0.466  0.497  0.587-   2 1.23
   5  0.391  0.494  0.485-   1 1.10
   6  0.456  0.454  0.438-   1 1.10
   7  0.451  0.542  0.439-   1 1.10
   8  0.579  0.460  0.486-   3 1.10
   9  0.574  0.548  0.487-   3 1.10
  10  0.591  0.504  0.563-   3 1.10
 
  LATTYP: Found a simple cubic cell.
 ALAT       =    20.0000000000
  
  Lattice vectors:
  
 A1 = (  20.0000000000,   0.0000000000,   0.0000000000)
 A2 = (   0.0000000000,  20.0000000000,   0.0000000000)
 A3 = (   0.0000000000,   0.0000000000,  20.0000000000)


Analysis of symmetry for initial positions (statically):
=====================================================================
 Subroutine PRICEL returns:
 Original cell was already a primitive cell.
 

 Routine SETGRP: Setting up the symmetry group for a 
 simple cubic supercell.


 Subroutine GETGRP returns: Found  1 space group operations
 (whereof  1 operations were pure point group operations)
 out of a pool of 48 trial point group operations.


The static configuration has the point symmetry C_1 .


Analysis of symmetry for dynamics (positions and initial velocities):
=====================================================================
 Subroutine PRICEL returns:
 Original cell was already a primitive cell.
 

 Routine SETGRP: Setting up the symmetry group for a 
 simple cubic supercell.


 Subroutine GETGRP returns: Found  1 space group operations
 (whereof  1 operations were pure point group operations)
 out of a pool of 48 trial point group operations.


The dynamic configuration has the point symmetry C_1 .
 
 
 KPOINTS:  Automatic mesh                         

Automatic generation of k-mesh.
Space group operators:
 irot       det(A)        alpha          n_x          n_y          n_z        tau_x        tau_y        tau_z
    1     1.000000     0.000000     1.000000     0.000000     0.000000     0.000000     0.000000     0.000000
 
 Subroutine IBZKPT returns following result:
 ===========================================
 
 Found      1 irreducible k-points:
 
 Following reciprocal coordinates:
            Coordinates               Weight
  0.000000  0.000000  0.000000      1.000000
 
 Following cartesian coordinates:
            Coordinates               Weight
  0.000000  0.000000  0.000000      1.000000
 
 
 Subroutine IBZKPT_HF returns following result:
 ==============================================
 
 Found      1 k-points in 1st BZ
 the following      1 k-points will be used (e.g. in the exchange kernel)
 Following reciprocal coordinates:   # in IRBZ
  0.000000  0.000000  0.000000       1 t-inv F


--------------------------------------------------------------------------------------------------------




 Dimension of arrays:
   k-points           NKPTS =      1   k-points in BZ     NKDIM =      1   number of bands    NBANDS=     24
   number of dos      NEDOS =    301   number of ions     NIONS =     10
   non local maximal  LDIM  =      4   non local SUM 2l+1 LMDIM =      8
   total plane-waves  NPLWV = 941192
   max r-space proj   IRMAX =   1346   max aug-charges    IRDMAX=   1726
   dimension x,y,z NGX =    98 NGY =   98 NGZ =   98
   dimension x,y,z NGXF=   196 NGYF=  196 NGZF=  196
   support grid    NGXF=   196 NGYF=  196 NGZF=  196
   ions per type =               3   1   6
 NGX,Y,Z   is equivalent  to a cutoff of   8.15,  8.15,  8.15 a.u.
 NGXF,Y,Z  is equivalent  to a cutoff of  16.29, 16.29, 16.29 a.u.


 I would recommend the setting:
   dimension x,y,z NGX =    98 NGY =   98 NGZ =   98
 SYSTEM =  unknown system                          
 POSCAR =  CH3CH2OH                                

 Startparameter for this run:
   NWRITE =      2    write-flag & timer
   PREC   = normal    normal or accurate (medium, high low for compatibility)
   ISTART =      0    job   : 0-new  1-cont  2-samecut
   ICHARG =      2    charge: 1-file 2-atom 10-const
   ISPIN  =      1    spin polarized calculation?
   LNONCOLLINEAR =      F non collinear calculations
   LSORBIT =      F    spin-orbit coupling
   INIWAV =      1    electr: 0-lowe 1-rand  2-diag
   LASPH  =      F    aspherical Exc in radial PAW
   METAGGA=      F    non-selfconsistent MetaGGA calc.
   LSOL =      F    Solvation

 Electronic Relaxation 1
   ENCUT  =  400.0 eV  29.40 Ry    5.42 a.u.  32.61 32.61 32.61*2*pi/ulx,y,z
   ENINI  =  400.0     initial cutoff
   ENAUG  =  644.9 eV  augmentation charge cutoff
   NELM   =     60;   NELMIN=  2; NELMDL= -5     # of ELM steps 
   EDIFF  = 0.1E-05   stopping-criterion for ELM
   LREAL  =      T    real-space projection
   NLSPLINE    = F    spline interpolate recip. space projectors
   LCOMPAT=      F    compatible to vasp.4.4
   GGA_COMPAT  = T    GGA compatible to vasp.4.4-vasp.4.6
   LMAXPAW     = -100 max onsite density
   LMAXMIX     =    2 max onsite mixed and CHGCAR
   VOSKOWN=      0    Vosko Wilk Nusair interpolation
   ROPT   =   -0.00050  -0.00050  -0.00050
 Ionic relaxation
   EDIFFG = -.1E-01   stopping-criterion for IOM
   NSW    =    100    number of steps for IOM
   NBLOCK =      1;   KBLOCK =    100    inner block; outer block 
   IBRION =      5    ionic relax: 0-MD 1-quasi-New 2-CG
   NFREE  =      2    steps in history (QN), initial steepest desc. (CG)
   ISIF   =      2    stress and relaxation
   IWAVPR =     11    prediction:  0-non 1-charg 2-wave 3-comb
   ISYM   =      2    0-nonsym 1-usesym 2-fastsym
   LCORR  =      T    Harris-Foulkes like correction to forces

   POTIM  = 0.0200    time-step for ionic-motion
   TEIN   =    0.0    initial temperature
   TEBEG  =    0.0;   TEEND  =   0.0 temperature during run
   SMASS  =  -3.00    Nose mass-parameter (am)
   estimated Nose-frequenzy (Omega)   =  0.10E-29 period in steps =****** mass=  -0.914E-26a.u.
   SCALEE = 1.0000    scale energy and forces
   NPACO  =    256;   APACO  = 16.0  distance and # of slots for P.C.
   PSTRESS=    0.0 pullay stress

  Mass of Ions in am
   POMASS =  12.01 16.00  1.00
  Ionic Valenz
   ZVAL   =   4.00  6.00  1.00
  Atomic Wigner-Seitz radii
   RWIGS  =  -1.00 -1.00 -1.00
  virtual crystal weights 
   VCA    =   1.00  1.00  1.00
   NELECT =      24.0000    total number of electrons
   NUPDOWN=      -1.0000    fix difference up-down

 DOS related values:
   EMIN   =  10.00;   EMAX   =-10.00  energy-range for DOS
   EFERMI =   0.00
   ISMEAR =     2;   SIGMA  =   0.20  broadening in eV -4-tet -1-fermi 0-gaus

 Electronic relaxation 2 (details)
   IALGO  =     38    algorithm
   LDIAG  =      T    sub-space diagonalisation (order eigenvalues)
   LSUBROT=      F    optimize rotation matrix (better conditioning)
   TURBO    =      0    0=normal 1=particle mesh
   IRESTART =      0    0=no restart 2=restart with 2 vectors
   NREBOOT  =      0    no. of reboots
   NMIN     =      0    reboot dimension
   EREF     =   0.00    reference energy to select bands
   IMIX   =      4    mixing-type and parameters
     AMIX     =   0.40;   BMIX     =  1.00
     AMIX_MAG =   1.60;   BMIX_MAG =  1.00
     AMIN     =   0.10
     WC   =   100.;   INIMIX=   1;  MIXPRE=   1;  MAXMIX= -45

 Intra band minimization:
   WEIMIN = 0.0010     energy-eigenvalue tresh-hold
   EBREAK =  0.10E-07  absolut break condition
   DEPER  =   0.30     relativ break condition  

   TIME   =   0.40     timestep for ELM

  volume/ion in A,a.u.               =     800.00      5398.67
  Fermi-wavevector in a.u.,A,eV,Ry     =   0.236110  0.446184  0.758500  0.055748
  Thomas-Fermi vector in A             =   1.036123
 
 Write flags
   LWAVE  =      F    write WAVECAR
   LCHARG =      F    write CHGCAR
   LVTOT  =      F    write LOCPOT, total local potential
   LVHAR  =      F    write LOCPOT, Hartree potential only
   LELF   =      F    write electronic localiz. function (ELF)
   LORBIT =      0    0 simple, 1 ext, 2 COOP (PROOUT)


 Dipole corrections
   LMONO  =      F    monopole corrections only (constant potential shift)
   LDIPOL =      F    correct potential (dipole corrections)
   IDIPOL =      3    1-x, 2-y, 3-z, 4-all directions 
   EPSILON=  1.0000000 bulk dielectric constant

 Exchange correlation treatment:
   GGA     =    PE    GGA type
   LEXCH   =     8    internal setting for exchange type
   VOSKOWN=      0    Vosko Wilk Nusair interpolation
   LHFCALC =     F    Hartree Fock is set to
   LHFONE  =     F    Hartree Fock one center treatment
   AEXX    =    0.0000 exact exchange contribution

 Linear response parameters
   LEPSILON=     F    determine dielectric tensor
   LRPA    =     F    only Hartree local field effects (RPA)
   LNABLA  =     F    use nabla operator in PAW spheres
   LVEL    =     F    velocity operator in full k-point grid
   LINTERFAST=   F  fast interpolation
   KINTER  =     0    interpolate to denser k-point grid
   CSHIFT  =0.1000    complex shift for real part using Kramers Kronig
   OMEGAMAX=  -1.0    maximum frequency
   DEG_THRESHOLD= 0.2000000E-02 threshold for treating states as degnerate
   RTIME   =    0.100 relaxation time in fs

 Orbital magnetization related:
   ORBITALMAG=     F  switch on orbital magnetization
   LCHIMAG   =     F  perturbation theory with respect to B field
   DQ        =  0.001000  dq finite difference perturbation B field



--------------------------------------------------------------------------------------------------------


 finite differences
 charge density and potential will be updated during run
 non-spin polarized calculation
 Variant of blocked Davidson
 Davidson routine will perform the subspace rotation
 perform sub-space diagonalisation
    after iterative eigenvector-optimisation
 modified Broyden-mixing scheme, WC =      100.0
 initial mixing is a Kerker type mixing with AMIX =  0.4000 and BMIX =      1.0000
 Hartree-type preconditioning will be used
 using additional bands           12
 real space projection scheme for non local part
 use partial core corrections
 calculate Harris-corrections to forces 
   (improved forces if not selfconsistent)
 use gradient corrections 
 use of overlap-Matrix (Vanderbilt PP)
 Methfessel and Paxton  Order N= 2 SIGMA  =   0.20


--------------------------------------------------------------------------------------------------------


  energy-cutoff  :      400.00
  volume of cell :     8000.00
      direct lattice vectors                 reciprocal lattice vectors
    20.000000000  0.000000000  0.000000000     0.050000000  0.000000000  0.000000000
     0.000000000 20.000000000  0.000000000     0.000000000  0.050000000  0.000000000
     0.000000000  0.000000000 20.000000000     0.000000000  0.000000000  0.050000000

  length of vectors
    20.000000000 20.000000000 20.000000000     0.050000000  0.050000000  0.050000000


 
 k-points in units of 2pi/SCALE and weight:  Automatic mesh                         
   0.00000000  0.00000000  0.00000000       1.000
 
 k-points in reciprocal lattice and weights:  Automatic mesh                         
   0.00000000  0.00000000  0.00000000       1.000
 
 position of ions in fractional coordinates (direct lattice) 
   0.44296517  0.49723641  0.46958070
   0.48834953  0.49901813  0.53003663
   0.56253522  0.50314623  0.51617091
   0.46627631  0.49731329  0.58717551
   0.39051503  0.49406897  0.48508227
   0.45566315  0.45427066  0.43756339
   0.45068565  0.54230202  0.43888251
   0.57855683  0.46025914  0.48557950
   0.57379029  0.54832731  0.48675529
   0.59066286  0.50405784  0.56317332
 
 position of ions in cartesian coordinates  (Angst):
   8.85930337  9.94472813  9.39161408
   9.76699069  9.98036260 10.60073269
  11.25070449 10.06292464 10.32341818
   9.32552625  9.94626583 11.74351029
   7.81030058  9.88137943  9.70164539
   9.11326298  9.08541316  8.75126788
   9.01371295 10.84604038  8.77765025
  11.57113666  9.20518281  9.71158996
  11.47580588 10.96654620  9.73510583
  11.81325713 10.08115682 11.26346646
 


--------------------------------------------------------------------------------------------------------


 k-point  1 :   0.0000 0.0000 0.0000  plane waves:  145165

 maximum and minimum number of plane-waves per node :    145165   145165

 maximum number of plane-waves:    145165
 maximum index in each direction: 
   IXMAX=   32   IYMAX=   32   IZMAX=   32
   IXMIN=  -32   IYMIN=  -32   IZMIN=  -32

 WARNING: aliasing errors must be expected set NGX to 130 to avoid them
 WARNING: aliasing errors must be expected set NGY to 130 to avoid them
 WARNING: aliasing errors must be expected set NGZ to 130 to avoid them
 aliasing errors are usually negligible using standard VASP settings
 and one can safely disregard these warnings

 serial   3D FFT for wavefunctions
 parallel 3D FFT for charge:
    minimum data exchange during FFTs selected (reduces bandwidth)


 total amount of memory used by VASP on root node   173767. kBytes
========================================================================

   base      :      30000. kBytes
   nonlr-proj:        786. kBytes
   fftplans  :      36243. kBytes
   grid      :      99737. kBytes
   one-center:         30. kBytes
   wavefun   :       6971. kBytes
 
     INWAV:  cpu time    0.00: real time    0.00
 Broyden mixing: mesh for mixing (old mesh)
   NGX = 65   NGY = 65   NGZ = 65
  (NGX  =196   NGY  =196   NGZ  =196)
  gives a total of 274625 points

 initial charge density was supplied:
 charge density of overlapping atoms calculated
 number of electron      24.0000000 magnetization 
 keeping initial charge density in first step


--------------------------------------------------------------------------------------------------------


 Maximum index for non-local projection operator         1252
 Maximum index for augmentation-charges          212 (set IRDMAX)


--------------------------------------------------------------------------------------------------------


 First call to EWALD:  gamma=   0.089
 Maximum number of real-space cells 3x 3x 3
 Maximum number of reciprocal cells 3x 3x 3

 FEWALD executed in parallel
    FEWALD:  cpu time    0.00: real time    0.00


----------------------------------------- Iteration    1(   1)  ---------------------------------------


    POTLOK:  cpu time    0.77: real time    0.77
    SETDIJ:  cpu time    0.00: real time    0.00
     EDDAV:  cpu time    1.04: real time    1.08
       DOS:  cpu time    0.00: real time    0.00
    --------------------------------------------
      LOOP:  cpu time    1.81: real time    1.85

 eigenvalue-minimisations  :    64
 total energy-change (2. order) : 0.1644414E+03  (-0.4351795E+03)
 number of electron      24.0000000 magnetization 
 augmentation part       24.0000000 magnetization 

 Free energy of the ion-electron system (eV)
  ---------------------------------------------------
  alpha Z        PSCENC =         0.29815835
  Ewald energy   TEWEN  =      1236.13329773
  -Hartree energ DENC   =     -1911.18437738
  -exchange      EXHF   =         0.00000000
  -V(xc)+E(xc)   XCENC  =        80.34934088
  PAW double counting   =       684.91978065     -688.47993544
  entropy T*S    EENTRO =         0.00897050
  eigenvalues    EBANDS =      -186.12051831
  atomic energy  EATOM  =       948.51666364
  Solvation contrib.  Ediel  =         0.00000000
  ---------------------------------------------------
  free energy    TOTEN  =       164.44138062 eV

  energy without entropy =      164.43241012  energy(sigma->0) =      164.43913800


--------------------------------------------------------------------------------------------------------




----------------------------------------- Iteration    1(   2)  ---------------------------------------


     EDDAV:  cpu time    1.36: real time    1.36
       DOS:  cpu time    0.00: real time    0.00
    --------------------------------------------
      LOOP:  cpu time    1.36: real time    1.36

 eigenvalue-minimisations  :    88
 total energy-change (2. order) :-0.1468396E+03  (-0.1453130E+03)
 number of electron      24.0000000 magnetization 
 augmentation part       24.0000000 magnetization 

 Free energy of the ion-electron system (eV)
  ---------------------------------------------------
  alpha Z        PSCENC =         0.29815835
  Ewald energy   TEWEN  =      1236.13329773
  -Hartree energ DENC   =     -1911.18437738
  -exchange      EXHF   =         0.00000000
  -V(xc)+E(xc)   XCENC  =        80.34934088
  PAW double counting   =       684.91978065     -688.47993544
  entropy T*S    EENTRO =         0.00491698
  eigenvalues    EBANDS =      -332.95601763
  atomic energy  EATOM  =       948.51666364
  Solvation contrib.  Ediel  =         0.00000000
  ---------------------------------------------------
  free energy    TOTEN  =        17.60182779 eV

  energy without entropy =       17.59691080  energy(sigma->0) =       17.60059854


--------------------------------------------------------------------------------------------------------




----------------------------------------- Iteration    1(   3)  ---------------------------------------


     EDDAV:  cpu time    1.26: real time    1.25
       DOS:  cpu time    0.00: real time    0.00
    --------------------------------------------
      LOOP:  cpu time    1.26: real time    1.25

 eigenvalue-minimisations  :    80
 total energy-change (2. order) :-0.7132155E+02  (-0.7092941E+02)
 number of electron      24.0000000 magnetization 
 augmentation part       24.0000000 magnetization 

 Free energy of the ion-electron system (eV)
  ---------------------------------------------------
  alpha Z        PSCENC =         0.29815835
  Ewald energy   TEWEN  =      1236.13329773
  -Hartree energ DENC   =     -1911.18437738
  -exchange      EXHF   =         0.00000000
  -V(xc)+E(xc)   XCENC  =        80.34934088
  PAW double counting   =       684.91978065     -688.47993544
  entropy T*S    EENTRO =         0.01101221
  eigenvalues    EBANDS =      -404.28366115
  atomic energy  EATOM  =       948.51666364
  Solvation contrib.  Ediel  =         0.00000000
  ---------------------------------------------------
  free energy    TOTEN  =       -53.71972051 eV

  energy without entropy =      -53.73073272  energy(sigma->0) =      -53.72247356


--------------------------------------------------------------------------------------------------------




----------------------------------------- Iteration    1(   4)  ---------------------------------------


     EDDAV:  cpu time    1.15: real time    1.15
       DOS:  cpu time    0.00: real time    0.00
    --------------------------------------------
      LOOP:  cpu time    1.15: real time    1.15

 eigenvalue-minimisations  :    72
 total energy-change (2. order) :-0.8406242E+01  (-0.8402847E+01)
 number of electron      24.0000000 magnetization 
 augmentation part       24.0000000 magnetization 

 Free energy of the ion-electron system (eV)
  ---------------------------------------------------
  alpha Z        PSCENC =         0.29815835
  Ewald energy   TEWEN  =      1236.13329773
  -Hartree energ DENC   =     -1911.18437738
  -exchange      EXHF   =         0.00000000
  -V(xc)+E(xc)   XCENC  =        80.34934088
  PAW double counting   =       684.91978065     -688.47993544
  entropy T*S    EENTRO =         0.01101221
  eigenvalues    EBANDS =      -412.68990343
  atomic energy  EATOM  =       948.51666364
  Solvation contrib.  Ediel  =         0.00000000
  ---------------------------------------------------
  free energy    TOTEN  =       -62.12596279 eV

  energy without entropy =      -62.13697500  energy(sigma->0) =      -62.12871584


--------------------------------------------------------------------------------------------------------




----------------------------------------- Iteration    1(   5)  ---------------------------------------


     EDDAV:  cpu time    1.15: real time    1.15
       DOS:  cpu time    0.00: real time    0.00
    CHARGE:  cpu time    0.18: real time    0.18
    MIXING:  cpu time    0.02: real time    0.02
    --------------------------------------------
      LOOP:  cpu time    1.35: real time    1.35

 eigenvalue-minimisations  :    72
 total energy-change (2. order) :-0.5512634E-01  (-0.5510431E-01)
 number of electron      23.9999990 magnetization 
 augmentation part        1.1867800 magnetization 

 Broyden mixing:
  rms(total) = 0.13122E+01    rms(broyden)= 0.13108E+01
  rms(prec ) = 0.14379E+01
  weight for this iteration     100.00

 Free energy of the ion-electron system (eV)
  ---------------------------------------------------
  alpha Z        PSCENC =         0.29815835
  Ewald energy   TEWEN  =      1236.13329773
  -Hartree energ DENC   =     -1911.18437738
  -exchange      EXHF   =         0.00000000
  -V(xc)+E(xc)   XCENC  =        80.34934088
  PAW double counting   =       684.91978065     -688.47993544
  entropy T*S    EENTRO =         0.01101221
  eigenvalues    EBANDS =      -412.74502977
  atomic energy  EATOM  =       948.51666364
  Solvation contrib.  Ediel  =         0.00000000
  ---------------------------------------------------
  free energy    TOTEN  =       -62.18108913 eV

  energy without entropy =      -62.19210134  energy(sigma->0) =      -62.18384218


--------------------------------------------------------------------------------------------------------




----------------------------------------- Iteration    1(   6)  ---------------------------------------


    POTLOK:  cpu time    0.71: real time    0.71
    SETDIJ:  cpu time    0.00: real time    0.00
     EDDAV:  cpu time    1.11: real time    1.11
       DOS:  cpu time    0.00: real time    0.00
    CHARGE:  cpu time    0.13: real time    0.13
    MIXING:  cpu time    0.02: real time    0.02
    --------------------------------------------
      LOOP:  cpu time    1.98: real time    1.98

 eigenvalue-minimisations  :    72
 total energy-change (2. order) : 0.5075839E+01  (-0.1306960E+01)
 number of electron      23.9999992 magnetization 
 augmentation part        1.0470675 magnetization 

 Broyden mixing:
  rms(total) = 0.67076E+00    rms(broyden)= 0.67022E+00
  rms(prec ) = 0.71656E+00
  weight for this iteration     100.00

 eigenvalues of (default mixing * dielectric matrix)
  average eigenvalue GAMMA=   1.2095
  1.2095

 Free energy of the ion-electron system (eV)
  ---------------------------------------------------
  alpha Z        PSCENC =         0.29815835
  Ewald energy   TEWEN  =      1236.13329773
  -Hartree energ DENC   =     -1961.61514496
  -exchange      EXHF   =         0.00000000
  -V(xc)+E(xc)   XCENC  =        83.06909826
  PAW double counting   =      1074.02736315    -1078.10814766
  entropy T*S    EENTRO =         0.01101221
  eigenvalues    EBANDS =      -359.43755081
  atomic energy  EATOM  =       948.51666364
  Solvation contrib.  Ediel  =         0.00000000
  ---------------------------------------------------
  free energy    TOTEN  =       -57.10525008 eV

  energy without entropy =      -57.11626229  energy(sigma->0) =      -57.10800313


--------------------------------------------------------------------------------------------------------




----------------------------------------- Iteration    1(   7)  ---------------------------------------


    POTLOK:  cpu time    0.72: real time    0.71
    SETDIJ:  cpu time    0.00: real time    0.00
     EDDAV:  cpu time    1.11: real time    1.11
       DOS:  cpu time    0.00: real time    0.00
    CHARGE:  cpu time    0.12: real time    0.12
    MIXING:  cpu time    0.02: real time    0.02
    --------------------------------------------
      LOOP:  cpu time    1.97: real time    1.98

 eigenvalue-minimisations  :    72
 total energy-change (2. order) : 0.8522195E+00  (-0.2652862E+00)
 number of electron      23.9999991 magnetization 
 augmentation part        1.0569535 magnetization 

 Broyden mixing:
  rms(total) = 0.35211E+00    rms(broyden)= 0.35202E+00
  rms(prec ) = 0.37359E+00
  weight for this iteration     100.00

 eigenvalues of (default mixing * dielectric matrix)
  average eigenvalue GAMMA=   1.4375
  1.0180  1.8570

 Free energy of the ion-electron system (eV)
  ---------------------------------------------------
  alpha Z        PSCENC =         0.29815835
  Ewald energy   TEWEN  =      1236.13329773
  -Hartree energ DENC   =     -1986.18750498
  -exchange      EXHF   =         0.00000000
  -V(xc)+E(xc)   XCENC  =        84.38667022
  PAW double counting   =      1437.88590904    -1442.01134668
  entropy T*S    EENTRO =         0.01101221
  eigenvalues    EBANDS =      -335.28589016
  atomic energy  EATOM  =       948.51666364
  Solvation contrib.  Ediel  =         0.00000000
  ---------------------------------------------------
  free energy    TOTEN  =       -56.25303062 eV

  energy without entropy =      -56.26404283  energy(sigma->0) =      -56.25578367


--------------------------------------------------------------------------------------------------------




----------------------------------------- Iteration    1(   8)  ---------------------------------------


    POTLOK:  cpu time    0.72: real time    0.71
    SETDIJ:  cpu time    0.00: real time    0.00
     EDDAV:  cpu time    1.01: real time    1.01
       DOS:  cpu time    0.00: real time    0.00
    CHARGE:  cpu time    0.13: real time    0.13
    MIXING:  cpu time    0.02: real time    0.02
    --------------------------------------------
      LOOP:  cpu time    1.88: real time    1.88

 eigenvalue-minimisations  :    64
 total energy-change (2. order) : 0.2592192E+00  (-0.4225587E-01)
 number of electron      23.9999991 magnetization 
 augmentation part        1.0328351 magnetization 

 Broyden mixing:
  rms(total) = 0.13258E+00    rms(broyden)= 0.13254E+00
  rms(prec ) = 0.14426E+00
  weight for this iteration     100.00

 eigenvalues of (default mixing * dielectric matrix)
  average eigenvalue GAMMA=   1.5083
  2.3299  1.3722  0.8229

 Free energy of the ion-electron system (eV)
  ---------------------------------------------------
  alpha Z        PSCENC =         0.29815835
  Ewald energy   TEWEN  =      1236.13329773
  -Hartree energ DENC   =     -2002.67360079
  -exchange      EXHF   =         0.00000000
  -V(xc)+E(xc)   XCENC  =        85.39115741
  PAW double counting   =      1720.73763509    -1724.90513869
  entropy T*S    EENTRO =         0.01101221
  eigenvalues    EBANDS =      -319.50299633
  atomic energy  EATOM  =       948.51666364
  Solvation contrib.  Ediel  =         0.00000000
  ---------------------------------------------------
  free energy    TOTEN  =       -55.99381137 eV

  energy without entropy =      -56.00482358  energy(sigma->0) =      -55.99656442


--------------------------------------------------------------------------------------------------------




----------------------------------------- Iteration    1(   9)  ---------------------------------------


    POTLOK:  cpu time    0.72: real time    0.72
    SETDIJ:  cpu time    0.00: real time    0.00
     EDDAV:  cpu time    1.11: real time    1.11
       DOS:  cpu time    0.00: real time    0.00
    CHARGE:  cpu time    0.27: real time    0.27
    MIXING:  cpu time    0.02: real time    0.02
    --------------------------------------------
      LOOP:  cpu time    2.12: real time    2.12

 eigenvalue-minimisations  :    72
 total energy-change (2. order) : 0.4955469E-01  (-0.9498965E-02)
 number of electron      23.9999991 magnetization 
 augmentation part        1.0296811 magnetization 

 Broyden mixing:
  rms(total) = 0.43831E-01    rms(broyden)= 0.43800E-01
  rms(prec ) = 0.54680E-01
  weight for this iteration     100.00

 eigenvalues of (default mixing * dielectric matrix)
  average eigenvalue GAMMA=   1.4307
  2.1356  0.9311  1.1549  1.5014

 Free energy of the ion-electron system (eV)
  ---------------------------------------------------
  alpha Z        PSCENC =         0.29815835
  Ewald energy   TEWEN  =      1236.13329773
  -Hartree energ DENC   =     -2009.65840620
  -exchange      EXHF   =         0.00000000
  -V(xc)+E(xc)   XCENC  =        85.77662079
  PAW double counting   =      1849.46204353    -1853.58805816
  entropy T*S    EENTRO =         0.01101221
  eigenvalues    EBANDS =      -312.89558858
  atomic energy  EATOM  =       948.51666364
  Solvation contrib.  Ediel  =         0.00000000
  ---------------------------------------------------
  free energy    TOTEN  =       -55.94425669 eV

  energy without entropy =      -55.95526889  energy(sigma->0) =      -55.94700974


--------------------------------------------------------------------------------------------------------




----------------------------------------- Iteration    1(  10)  ---------------------------------------


    POTLOK:  cpu time    0.72: real time    0.72
    SETDIJ:  cpu time    0.00: real time    0.00
     EDDAV:  cpu time    1.01: real time    1.01
       DOS:  cpu time    0.00: real time    0.00
    CHARGE:  cpu time    0.27: real time    0.27
    MIXING:  cpu time    0.02: real time    0.02
    --------------------------------------------
      LOOP:  cpu time    2.02: real time    2.02

 eigenvalue-minimisations  :    64
 total energy-change (2. order) : 0.3216519E-02  (-0.1802326E-02)
 number of electron      23.9999991 magnetization 
 augmentation part        1.0340500 magnetization 

 Broyden mixing:
  rms(total) = 0.18366E-01    rms(broyden)= 0.18339E-01
  rms(prec ) = 0.31138E-01
  weight for this iteration     100.00

 eigenvalues of (default mixing * dielectric matrix)
  average eigenvalue GAMMA=   1.5485
  2.3712  2.3712  1.3116  0.8442  0.8442

 Free energy of the ion-electron system (eV)
  ---------------------------------------------------
  alpha Z        PSCENC =         0.29815835
  Ewald energy   TEWEN  =      1236.13329773
  -Hartree energ DENC   =     -2010.98264095
  -exchange      EXHF   =         0.00000000
  -V(xc)+E(xc)   XCENC  =        85.76723566
  PAW double counting   =      1837.88662048    -1841.99218296
  entropy T*S    EENTRO =         0.01101221
  eigenvalues    EBANDS =      -311.57920433
  atomic energy  EATOM  =       948.51666364
  Solvation contrib.  Ediel  =         0.00000000
  ---------------------------------------------------
  free energy    TOTEN  =       -55.94104017 eV

  energy without entropy =      -55.95205237  energy(sigma->0) =      -55.94379322


--------------------------------------------------------------------------------------------------------




----------------------------------------- Iteration    1(  11)  ---------------------------------------


    POTLOK:  cpu time    0.73: real time    0.73
    SETDIJ:  cpu time    0.00: real time    0.00
     EDDAV:  cpu time    0.81: real time    0.81
       DOS:  cpu time    0.00: real time    0.00
    CHARGE:  cpu time    0.27: real time    0.27
    MIXING:  cpu time    0.02: real time    0.02
    --------------------------------------------
      LOOP:  cpu time    1.84: real time    1.84

 eigenvalue-minimisations  :    48
 total energy-change (2. order) : 0.2123583E-02  (-0.7408575E-03)
 number of electron      23.9999991 magnetization 
 augmentation part        1.0327499 magnetization 

 Broyden mixing:
  rms(total) = 0.14835E-01    rms(broyden)= 0.14829E-01
  rms(prec ) = 0.22432E-01
  weight for this iteration     100.00

 eigenvalues of (default mixing * dielectric matrix)
  average eigenvalue GAMMA=   1.5048
  2.4065  2.4065  0.9566  0.9566  1.1513  1.1513

 Free energy of the ion-electron system (eV)
  ---------------------------------------------------
  alpha Z        PSCENC =         0.29815835
  Ewald energy   TEWEN  =      1236.13329773
  -Hartree energ DENC   =     -2014.06182191
  -exchange      EXHF   =         0.00000000
  -V(xc)+E(xc)   XCENC  =        85.84274094
  PAW double counting   =      1839.57014125    -1843.66364854
  entropy T*S    EENTRO =         0.01101221
  eigenvalues    EBANDS =      -308.58546026
  atomic energy  EATOM  =       948.51666364
  Solvation contrib.  Ediel  =         0.00000000
  ---------------------------------------------------
  free energy    TOTEN  =       -55.93891658 eV

  energy without entropy =      -55.94992879  energy(sigma->0) =      -55.94166964


--------------------------------------------------------------------------------------------------------




----------------------------------------- Iteration    1(  12)  ---------------------------------------


    POTLOK:  cpu time    0.74: real time    0.73
    SETDIJ:  cpu time    0.00: real time    0.00
     EDDAV:  cpu time    1.01: real time    1.01
       DOS:  cpu time    0.00: real time    0.00
    CHARGE:  cpu time    0.27: real time    0.27
    MIXING:  cpu time    0.02: real time    0.02
    --------------------------------------------
      LOOP:  cpu time    2.04: real time    2.04

 eigenvalue-minimisations  :    64
 total energy-change (2. order) :-0.4912429E-02  (-0.7774902E-03)
 number of electron      23.9999991 magnetization 
 augmentation part        1.0307869 magnetization 

 Broyden mixing:
  rms(total) = 0.74674E-02    rms(broyden)= 0.74493E-02
  rms(prec ) = 0.13047E-01
  weight for this iteration     100.00

 eigenvalues of (default mixing * dielectric matrix)
  average eigenvalue GAMMA=   1.6639
  3.5343  2.3458  1.4808  0.9271  0.9271  1.2160  1.2160

 Free energy of the ion-electron system (eV)
  ---------------------------------------------------
  alpha Z        PSCENC =         0.29815835
  Ewald energy   TEWEN  =      1236.13329773
  -Hartree energ DENC   =     -2016.17862430
  -exchange      EXHF   =         0.00000000
  -V(xc)+E(xc)   XCENC  =        85.88221157
  PAW double counting   =      1836.78142333    -1840.87484310
  entropy T*S    EENTRO =         0.01101221
  eigenvalues    EBANDS =      -306.51312846
  atomic energy  EATOM  =       948.51666364
  Solvation contrib.  Ediel  =         0.00000000
  ---------------------------------------------------
  free energy    TOTEN  =       -55.94382901 eV

  energy without entropy =      -55.95484122  energy(sigma->0) =      -55.94658207


--------------------------------------------------------------------------------------------------------




----------------------------------------- Iteration    1(  13)  ---------------------------------------


    POTLOK:  cpu time    0.74: real time    0.74
    SETDIJ:  cpu time    0.00: real time    0.00
     EDDAV:  cpu time    0.81: real time    0.81
       DOS:  cpu time    0.00: real time    0.00
    CHARGE:  cpu time    0.29: real time    0.29
    MIXING:  cpu time    0.02: real time    0.02
    --------------------------------------------
      LOOP:  cpu time    1.87: real time    1.87

 eigenvalue-minimisations  :    48
 total energy-change (2. order) :-0.3261257E-02  (-0.2202147E-03)
 number of electron      23.9999991 magnetization 
 augmentation part        1.0302060 magnetization 

 Broyden mixing:
  rms(total) = 0.55675E-02    rms(broyden)= 0.55654E-02
  rms(prec ) = 0.84182E-02
  weight for this iteration     100.00

 eigenvalues of (default mixing * dielectric matrix)
  average eigenvalue GAMMA=   1.7762
  4.1532  2.4326  2.1783  1.3146  0.8873  0.8873  1.1782  1.1782

 Free energy of the ion-electron system (eV)
  ---------------------------------------------------
  alpha Z        PSCENC =         0.29815835
  Ewald energy   TEWEN  =      1236.13329773
  -Hartree energ DENC   =     -2018.10603478
  -exchange      EXHF   =         0.00000000
  -V(xc)+E(xc)   XCENC  =        85.91856728
  PAW double counting   =      1835.81343097    -1839.90433064
  entropy T*S    EENTRO =         0.01101221
  eigenvalues    EBANDS =      -304.62785503
  atomic energy  EATOM  =       948.51666364
  Solvation contrib.  Ediel  =         0.00000000
  ---------------------------------------------------
  free energy    TOTEN  =       -55.94709027 eV

  energy without entropy =      -55.95810248  energy(sigma->0) =      -55.94984332


--------------------------------------------------------------------------------------------------------




----------------------------------------- Iteration    1(  14)  ---------------------------------------


    POTLOK:  cpu time    0.74: real time    0.74
    SETDIJ:  cpu time    0.00: real time    0.00
     EDDAV:  cpu time    1.02: real time    1.02
       DOS:  cpu time    0.00: real time    0.00
    CHARGE:  cpu time    0.27: real time    0.27
    MIXING:  cpu time    0.03: real time    0.03
    --------------------------------------------
      LOOP:  cpu time    2.06: real time    2.06

 eigenvalue-minimisations  :    64
 total energy-change (2. order) :-0.6042862E-02  (-0.1216991E-03)
 number of electron      23.9999991 magnetization 
 augmentation part        1.0301596 magnetization 

 Broyden mixing:
  rms(total) = 0.26342E-02    rms(broyden)= 0.26335E-02
  rms(prec ) = 0.43177E-02
  weight for this iteration     100.00

 eigenvalues of (default mixing * dielectric matrix)
  average eigenvalue GAMMA=   1.9045
  5.2955  2.8149  2.1813  1.6876  1.1786  1.1786  0.8941  0.8941  1.0164

 Free energy of the ion-electron system (eV)
  ---------------------------------------------------
  alpha Z        PSCENC =         0.29815835
  Ewald energy   TEWEN  =      1236.13329773
  -Hartree energ DENC   =     -2018.89086499
  -exchange      EXHF   =         0.00000000
  -V(xc)+E(xc)   XCENC  =        85.91582822
  PAW double counting   =      1832.32366204    -1836.41678149
  entropy T*S    EENTRO =         0.01101221
  eigenvalues    EBANDS =      -303.84410885
  atomic energy  EATOM  =       948.51666364
  Solvation contrib.  Ediel  =         0.00000000
  ---------------------------------------------------
  free energy    TOTEN  =       -55.95313313 eV

  energy without entropy =      -55.96414534  energy(sigma->0) =      -55.95588618


--------------------------------------------------------------------------------------------------------




----------------------------------------- Iteration    1(  15)  ---------------------------------------


    POTLOK:  cpu time    0.74: real time    0.75
    SETDIJ:  cpu time    0.00: real time    0.00
     EDDAV:  cpu time    1.01: real time    1.01
       DOS:  cpu time    0.00: real time    0.00
    CHARGE:  cpu time    0.27: real time    0.27
    MIXING:  cpu time    0.03: real time    0.03
    --------------------------------------------
      LOOP:  cpu time    2.06: real time    2.06

 eigenvalue-minimisations  :    64
 total energy-change (2. order) :-0.3389312E-02  (-0.3800810E-04)
 number of electron      23.9999991 magnetization 
 augmentation part        1.0304092 magnetization 

 Broyden mixing:
  rms(total) = 0.18906E-02    rms(broyden)= 0.18892E-02
  rms(prec ) = 0.28316E-02
  weight for this iteration     100.00

 eigenvalues of (default mixing * dielectric matrix)
  average eigenvalue GAMMA=   2.0794
  6.2403  3.4911  2.4588  1.8735  1.5149  1.2219  1.2219  0.8971  0.8971  0.9775

 Free energy of the ion-electron system (eV)
  ---------------------------------------------------
  alpha Z        PSCENC =         0.29815835
  Ewald energy   TEWEN  =      1236.13329773
  -Hartree energ DENC   =     -2019.02681718
  -exchange      EXHF   =         0.00000000
  -V(xc)+E(xc)   XCENC  =        85.90556694
  PAW double counting   =      1831.99118469    -1836.08312322
  entropy T*S    EENTRO =         0.01101221
  eigenvalues    EBANDS =      -303.70246562
  atomic energy  EATOM  =       948.51666364
  Solvation contrib.  Ediel  =         0.00000000
  ---------------------------------------------------
  free energy    TOTEN  =       -55.95652244 eV

  energy without entropy =      -55.96753465  energy(sigma->0) =      -55.95927550


--------------------------------------------------------------------------------------------------------




----------------------------------------- Iteration    1(  16)  ---------------------------------------


    POTLOK:  cpu time    0.74: real time    0.74
    SETDIJ:  cpu time    0.00: real time    0.00
     EDDAV:  cpu time    1.01: real time    1.01
       DOS:  cpu time    0.00: real time    0.00
    CHARGE:  cpu time    0.27: real time    0.27
    MIXING:  cpu time    0.03: real time    0.03
    --------------------------------------------
      LOOP:  cpu time    2.06: real time    2.06

 eigenvalue-minimisations  :    64
 total energy-change (2. order) :-0.2814160E-02  (-0.3575236E-04)
 number of electron      23.9999991 magnetization 
 augmentation part        1.0303147 magnetization 

 Broyden mixing:
  rms(total) = 0.99290E-03    rms(broyden)= 0.99233E-03
  rms(prec ) = 0.14007E-02
  weight for this iteration     100.00

 eigenvalues of (default mixing * dielectric matrix)
  average eigenvalue GAMMA=   2.1282
  6.9563  3.7821  2.4244  2.4244  1.5947  1.2293  1.2293  0.8978  0.8978  0.9874
  0.9874

 Free energy of the ion-electron system (eV)
  ---------------------------------------------------
  alpha Z        PSCENC =         0.29815835
  Ewald energy   TEWEN  =      1236.13329773
  -Hartree energ DENC   =     -2019.16539374
  -exchange      EXHF   =         0.00000000
  -V(xc)+E(xc)   XCENC  =        85.90236946
  PAW double counting   =      1833.97618928    -1838.06760348
  entropy T*S    EENTRO =         0.01101221
  eigenvalues    EBANDS =      -303.56403006
  atomic energy  EATOM  =       948.51666364
  Solvation contrib.  Ediel  =         0.00000000
  ---------------------------------------------------
  free energy    TOTEN  =       -55.95933660 eV

  energy without entropy =      -55.97034881  energy(sigma->0) =      -55.96208966


--------------------------------------------------------------------------------------------------------




----------------------------------------- Iteration    1(  17)  ---------------------------------------


    POTLOK:  cpu time    0.74: real time    0.74
    SETDIJ:  cpu time    0.00: real time    0.00
     EDDAV:  cpu time    1.01: real time    1.01
       DOS:  cpu time    0.00: real time    0.00
    CHARGE:  cpu time    0.26: real time    0.27
    MIXING:  cpu time    0.03: real time    0.03
    --------------------------------------------
      LOOP:  cpu time    2.06: real time    2.06

 eigenvalue-minimisations  :    64
 total energy-change (2. order) :-0.8368575E-03  (-0.6466164E-05)
 number of electron      23.9999991 magnetization 
 augmentation part        1.0301611 magnetization 

 Broyden mixing:
  rms(total) = 0.62129E-03    rms(broyden)= 0.62056E-03
  rms(prec ) = 0.86716E-03
  weight for this iteration     100.00

 eigenvalues of (default mixing * dielectric matrix)
  average eigenvalue GAMMA=   2.1982
  7.6734  4.1623  2.5363  2.5363  1.6492  1.6492  1.2284  1.2284  0.9013  0.9013
  0.9559  0.9559

 Free energy of the ion-electron system (eV)
  ---------------------------------------------------
  alpha Z        PSCENC =         0.29815835
  Ewald energy   TEWEN  =      1236.13329773
  -Hartree energ DENC   =     -2019.16529997
  -exchange      EXHF   =         0.00000000
  -V(xc)+E(xc)   XCENC  =        85.89966335
  PAW double counting   =      1833.45376583    -1837.54496148
  entropy T*S    EENTRO =         0.01101221
  eigenvalues    EBANDS =      -303.56247313
  atomic energy  EATOM  =       948.51666364
  Solvation contrib.  Ediel  =         0.00000000
  ---------------------------------------------------
  free energy    TOTEN  =       -55.96017346 eV

  energy without entropy =      -55.97118567  energy(sigma->0) =      -55.96292651


--------------------------------------------------------------------------------------------------------




----------------------------------------- Iteration    1(  18)  ---------------------------------------


    POTLOK:  cpu time    0.74: real time    0.74
    SETDIJ:  cpu time    0.00: real time    0.00
     EDDAV:  cpu time    1.11: real time    1.11
       DOS:  cpu time    0.00: real time    0.00
    CHARGE:  cpu time    0.13: real time    0.13
    MIXING:  cpu time    0.04: real time    0.03
    --------------------------------------------
      LOOP:  cpu time    2.02: real time    2.02

 eigenvalue-minimisations  :    72
 total energy-change (2. order) :-0.4027996E-03  (-0.2128439E-05)
 number of electron      23.9999991 magnetization 
 augmentation part        1.0302396 magnetization 

 Broyden mixing:
  rms(total) = 0.29975E-03    rms(broyden)= 0.29945E-03
  rms(prec ) = 0.45743E-03
  weight for this iteration     100.00

 eigenvalues of (default mixing * dielectric matrix)
  average eigenvalue GAMMA=   2.2461
  7.8621  5.0276  2.8477  2.2751  2.2751  1.2511  1.2511  1.3275  1.3275  0.8960
  0.8960  0.9810  0.9810

 Free energy of the ion-electron system (eV)
  ---------------------------------------------------
  alpha Z        PSCENC =         0.29815835
  Ewald energy   TEWEN  =      1236.13329773
  -Hartree energ DENC   =     -2019.14663620
  -exchange      EXHF   =         0.00000000
  -V(xc)+E(xc)   XCENC  =        85.89790225
  PAW double counting   =      1833.23102658    -1837.32205252
  entropy T*S    EENTRO =         0.01101221
  eigenvalues    EBANDS =      -303.57994831
  atomic energy  EATOM  =       948.51666364
  Solvation contrib.  Ediel  =         0.00000000
  ---------------------------------------------------
  free energy    TOTEN  =       -55.96057626 eV

  energy without entropy =      -55.97158847  energy(sigma->0) =      -55.96332931


--------------------------------------------------------------------------------------------------------




----------------------------------------- Iteration    1(  19)  ---------------------------------------


    POTLOK:  cpu time    0.73: real time    0.73
    SETDIJ:  cpu time    0.00: real time    0.00
     EDDAV:  cpu time    1.01: real time    1.01
       DOS:  cpu time    0.00: real time    0.00
    CHARGE:  cpu time    0.13: real time    0.13
    MIXING:  cpu time    0.04: real time    0.03
    --------------------------------------------
      LOOP:  cpu time    1.91: real time    1.91

 eigenvalue-minimisations  :    64
 total energy-change (2. order) :-0.1779221E-03  (-0.5742307E-06)
 number of electron      23.9999991 magnetization 
 augmentation part        1.0302080 magnetization 

 Broyden mixing:
  rms(total) = 0.19469E-03    rms(broyden)= 0.19456E-03
  rms(prec ) = 0.28285E-03
  weight for this iteration     100.00

 eigenvalues of (default mixing * dielectric matrix)
  average eigenvalue GAMMA=   2.3026
  8.4003  5.3330  3.3830  2.4880  2.1988  1.6054  1.6054  1.2366  1.2366  0.8986
  0.8986  1.0268  0.9625  0.9625

 Free energy of the ion-electron system (eV)
  ---------------------------------------------------
  alpha Z        PSCENC =         0.29815835
  Ewald energy   TEWEN  =      1236.13329773
  -Hartree energ DENC   =     -2019.17638408
  -exchange      EXHF   =         0.00000000
  -V(xc)+E(xc)   XCENC  =        85.89890810
  PAW double counting   =      1833.40258863    -1837.49386094
  entropy T*S    EENTRO =         0.01101221
  eigenvalues    EBANDS =      -303.55113784
  atomic energy  EATOM  =       948.51666364
  Solvation contrib.  Ediel  =         0.00000000
  ---------------------------------------------------
  free energy    TOTEN  =       -55.96075418 eV

  energy without entropy =      -55.97176639  energy(sigma->0) =      -55.96350724


--------------------------------------------------------------------------------------------------------




----------------------------------------- Iteration    1(  20)  ---------------------------------------


    POTLOK:  cpu time    0.73: real time    0.73
    SETDIJ:  cpu time    0.00: real time    0.00
     EDDAV:  cpu time    1.01: real time    1.01
       DOS:  cpu time    0.00: real time    0.00
    CHARGE:  cpu time    0.12: real time    0.13
    MIXING:  cpu time    0.04: real time    0.04
    --------------------------------------------
      LOOP:  cpu time    1.92: real time    1.92

 eigenvalue-minimisations  :    64
 total energy-change (2. order) :-0.1243520E-03  (-0.2380079E-06)
 number of electron      23.9999991 magnetization 
 augmentation part        1.0302152 magnetization 

 Broyden mixing:
  rms(total) = 0.10171E-03    rms(broyden)= 0.10166E-03
  rms(prec ) = 0.13699E-03
  weight for this iteration     100.00

 eigenvalues of (default mixing * dielectric matrix)
  average eigenvalue GAMMA=   2.3625
  8.7025  5.9635  3.8691  2.7255  2.2217  2.2217  1.2488  1.2488  1.4052  0.8983
  0.8983  1.1062  0.9955  0.9955  0.9373

 Free energy of the ion-electron system (eV)
  ---------------------------------------------------
  alpha Z        PSCENC =         0.29815835
  Ewald energy   TEWEN  =      1236.13329773
  -Hartree energ DENC   =     -2019.18155097
  -exchange      EXHF   =         0.00000000
  -V(xc)+E(xc)   XCENC  =        85.89851190
  PAW double counting   =      1833.20302142    -1837.29434662
  entropy T*S    EENTRO =         0.01101221
  eigenvalues    EBANDS =      -303.54564619
  atomic energy  EATOM  =       948.51666364
  Solvation contrib.  Ediel  =         0.00000000
  ---------------------------------------------------
  free energy    TOTEN  =       -55.96087854 eV

  energy without entropy =      -55.97189074  energy(sigma->0) =      -55.96363159


--------------------------------------------------------------------------------------------------------




----------------------------------------- Iteration    1(  21)  ---------------------------------------


    POTLOK:  cpu time    0.74: real time    0.74
    SETDIJ:  cpu time    0.00: real time    0.00
     EDDAV:  cpu time    0.92: real time    0.92
       DOS:  cpu time    0.00: real time    0.00
    CHARGE:  cpu time    0.13: real time    0.13
    MIXING:  cpu time    0.04: real time    0.04
    --------------------------------------------
      LOOP:  cpu time    1.83: real time    1.83

 eigenvalue-minimisations  :    56
 total energy-change (2. order) :-0.3919053E-04  (-0.6297653E-07)
 number of electron      23.9999991 magnetization 
 augmentation part        1.0302340 magnetization 

 Broyden mixing:
  rms(total) = 0.10674E-03    rms(broyden)= 0.10666E-03
  rms(prec ) = 0.12340E-03
  weight for this iteration     100.00

 eigenvalues of (default mixing * dielectric matrix)
  average eigenvalue GAMMA=   2.4359
  9.0162  6.3829  4.3309  2.7896  2.5945  2.0705  2.0705  1.2415  1.2415  1.4460
  0.8961  0.8961  1.0276  1.0276  0.9712  0.9712

 Free energy of the ion-electron system (eV)
  ---------------------------------------------------
  alpha Z        PSCENC =         0.29815835
  Ewald energy   TEWEN  =      1236.13329773
  -Hartree energ DENC   =     -2019.18009136
  -exchange      EXHF   =         0.00000000
  -V(xc)+E(xc)   XCENC  =        85.89830629
  PAW double counting   =      1833.25109358    -1837.34238593
  entropy T*S    EENTRO =         0.01101221
  eigenvalues    EBANDS =      -303.54697224
  atomic energy  EATOM  =       948.51666364
  Solvation contrib.  Ediel  =         0.00000000
  ---------------------------------------------------
  free energy    TOTEN  =       -55.96091773 eV

  energy without entropy =      -55.97192993  energy(sigma->0) =      -55.96367078


--------------------------------------------------------------------------------------------------------




----------------------------------------- Iteration    1(  22)  ---------------------------------------


    POTLOK:  cpu time    0.75: real time    0.75
    SETDIJ:  cpu time    0.00: real time    0.00
     EDDAV:  cpu time    0.72: real time    0.72
       DOS:  cpu time    0.00: real time    0.00
    CHARGE:  cpu time    0.13: real time    0.13
    MIXING:  cpu time    0.04: real time    0.05
    --------------------------------------------
      LOOP:  cpu time    1.64: real time    1.64

 eigenvalue-minimisations  :    40
 total energy-change (2. order) :-0.2176301E-04  (-0.3697112E-07)
 number of electron      23.9999991 magnetization 
 augmentation part        1.0302178 magnetization 

 Broyden mixing:
  rms(total) = 0.36684E-04    rms(broyden)= 0.36548E-04
  rms(prec ) = 0.44190E-04
  weight for this iteration     100.00

 eigenvalues of (default mixing * dielectric matrix)
  average eigenvalue GAMMA=   2.4307
  9.1672  6.6435  4.5046  3.1770  2.4809  2.4809  1.9155  1.5075  1.2399  1.2399
  0.8959  0.8959  1.0921  1.0921  1.0284  0.9804  0.9804

 Free energy of the ion-electron system (eV)
  ---------------------------------------------------
  alpha Z        PSCENC =         0.29815835
  Ewald energy   TEWEN  =      1236.13329773
  -Hartree energ DENC   =     -2019.18695447
  -exchange      EXHF   =         0.00000000
  -V(xc)+E(xc)   XCENC  =        85.89854613
  PAW double counting   =      1833.31834193    -1837.40963904
  entropy T*S    EENTRO =         0.01101221
  eigenvalues    EBANDS =      -303.54036597
  atomic energy  EATOM  =       948.51666364
  Solvation contrib.  Ediel  =         0.00000000
  ---------------------------------------------------
  free energy    TOTEN  =       -55.96093949 eV

  energy without entropy =      -55.97195170  energy(sigma->0) =      -55.96369254


--------------------------------------------------------------------------------------------------------




----------------------------------------- Iteration    1(  23)  ---------------------------------------


    POTLOK:  cpu time    0.75: real time    0.75
    SETDIJ:  cpu time    0.00: real time    0.00
     EDDAV:  cpu time    0.81: real time    0.81
       DOS:  cpu time    0.00: real time    0.00
    CHARGE:  cpu time    0.13: real time    0.13
    MIXING:  cpu time    0.04: real time    0.05
    --------------------------------------------
      LOOP:  cpu time    1.74: real time    1.74

 eigenvalue-minimisations  :    48
 total energy-change (2. order) :-0.4930225E-05  (-0.5076087E-08)
 number of electron      23.9999991 magnetization 
 augmentation part        1.0302205 magnetization 

 Broyden mixing:
  rms(total) = 0.20078E-04    rms(broyden)= 0.20071E-04
  rms(prec ) = 0.24930E-04
  weight for this iteration     100.00

 eigenvalues of (default mixing * dielectric matrix)
  average eigenvalue GAMMA=   2.4490
  9.3517  6.8710  4.8948  3.4474  2.6742  2.3195  1.8989  1.8989  1.5107  1.2382
  1.2382  0.8959  0.8959  1.0087  1.0087  1.0037  1.0037  0.9214

 Free energy of the ion-electron system (eV)
  ---------------------------------------------------
  alpha Z        PSCENC =         0.29815835
  Ewald energy   TEWEN  =      1236.13329773
  -Hartree energ DENC   =     -2019.18535859
  -exchange      EXHF   =         0.00000000
  -V(xc)+E(xc)   XCENC  =        85.89843177
  PAW double counting   =      1833.30381353    -1837.39507835
  entropy T*S    EENTRO =         0.01101221
  eigenvalues    EBANDS =      -303.54188471
  atomic energy  EATOM  =       948.51666364
  Solvation contrib.  Ediel  =         0.00000000
  ---------------------------------------------------
  free energy    TOTEN  =       -55.96094442 eV

  energy without entropy =      -55.97195663  energy(sigma->0) =      -55.96369747


--------------------------------------------------------------------------------------------------------




----------------------------------------- Iteration    1(  24)  ---------------------------------------


    POTLOK:  cpu time    0.75: real time    0.75
    SETDIJ:  cpu time    0.00: real time    0.00
     EDDAV:  cpu time    0.82: real time    0.82
       DOS:  cpu time    0.00: real time    0.00
    CHARGE:  cpu time    0.12: real time    0.13
    MIXING:  cpu time    0.05: real time    0.05
    --------------------------------------------
      LOOP:  cpu time    1.74: real time    1.74

 eigenvalue-minimisations  :    48
 total energy-change (2. order) :-0.2199992E-05  (-0.1304990E-08)
 number of electron      23.9999991 magnetization 
 augmentation part        1.0302216 magnetization 

 Broyden mixing:
  rms(total) = 0.76067E-05    rms(broyden)= 0.76000E-05
  rms(prec ) = 0.11076E-04
  weight for this iteration     100.00

 eigenvalues of (default mixing * dielectric matrix)
  average eigenvalue GAMMA=   2.4525
  9.4578  6.9945  5.0817  3.6640  2.7771  2.4571  2.3578  1.8963  1.4949  1.2388
  1.2388  1.1316  1.1316  0.8960  0.8960  0.9819  0.9819  0.9598  0.9598

 Free energy of the ion-electron system (eV)
  ---------------------------------------------------
  alpha Z        PSCENC =         0.29815835
  Ewald energy   TEWEN  =      1236.13329773
  -Hartree energ DENC   =     -2019.18601867
  -exchange      EXHF   =         0.00000000
  -V(xc)+E(xc)   XCENC  =        85.89845437
  PAW double counting   =      1833.30292826    -1837.39419715
  entropy T*S    EENTRO =         0.01101221
  eigenvalues    EBANDS =      -303.54124537
  atomic energy  EATOM  =       948.51666364
  Solvation contrib.  Ediel  =         0.00000000
  ---------------------------------------------------
  free energy    TOTEN  =       -55.96094662 eV

  energy without entropy =      -55.97195883  energy(sigma->0) =      -55.96369967


--------------------------------------------------------------------------------------------------------




----------------------------------------- Iteration    1(  25)  ---------------------------------------


    POTLOK:  cpu time    0.75: real time    0.75
    SETDIJ:  cpu time    0.00: real time    0.00
     EDDAV:  cpu time    0.81: real time    0.81
       DOS:  cpu time    0.00: real time    0.00
    CHARGE:  cpu time    0.13: real time    0.13
    MIXING:  cpu time    0.05: real time    0.05
    --------------------------------------------
      LOOP:  cpu time    1.75: real time    1.75

 eigenvalue-minimisations  :    48
 total energy-change (2. order) :-0.1197913E-05  (-0.2433289E-09)
 number of electron      23.9999991 magnetization 
 augmentation part        1.0302223 magnetization 

 Broyden mixing:
  rms(total) = 0.57996E-05    rms(broyden)= 0.57935E-05
  rms(prec ) = 0.76143E-05
  weight for this iteration     100.00

 eigenvalues of (default mixing * dielectric matrix)
  average eigenvalue GAMMA=   2.4717
  9.5236  7.1404  5.2822  4.0376  2.9491  2.5267  2.1572  2.0312  2.0312  1.5049
  1.2385  1.2385  0.8964  0.8964  1.0091  1.0091  1.0233  1.0233  0.9744  0.9415

 Free energy of the ion-electron system (eV)
  ---------------------------------------------------
  alpha Z        PSCENC =         0.29815835
  Ewald energy   TEWEN  =      1236.13329773
  -Hartree energ DENC   =     -2019.18598361
  -exchange      EXHF   =         0.00000000
  -V(xc)+E(xc)   XCENC  =        85.89844545
  PAW double counting   =      1833.29235334    -1837.38362900
  entropy T*S    EENTRO =         0.01101221
  eigenvalues    EBANDS =      -303.54126594
  atomic energy  EATOM  =       948.51666364
  Solvation contrib.  Ediel  =         0.00000000
  ---------------------------------------------------
  free energy    TOTEN  =       -55.96094782 eV

  energy without entropy =      -55.97196003  energy(sigma->0) =      -55.96370087


--------------------------------------------------------------------------------------------------------




----------------------------------------- Iteration    1(  26)  ---------------------------------------


    POTLOK:  cpu time    0.77: real time    0.77
    SETDIJ:  cpu time    0.00: real time    0.00
     EDDAV:  cpu time    0.81: real time    0.81
       DOS:  cpu time    0.00: real time    0.00
    --------------------------------------------
      LOOP:  cpu time    1.58: real time    1.59

 eigenvalue-minimisations  :    48
 total energy-change (2. order) :-0.7308601E-06  ( 0.1979963E-09)
 number of electron      23.9999991 magnetization 
 augmentation part        1.0302223 magnetization 

 Free energy of the ion-electron system (eV)
  ---------------------------------------------------
  alpha Z        PSCENC =         0.29815835
  Ewald energy   TEWEN  =      1236.13329773
  -Hartree energ DENC   =     -2019.18594516
  -exchange      EXHF   =         0.00000000
  -V(xc)+E(xc)   XCENC  =        85.89844063
  PAW double counting   =      1833.29386817    -1837.38514563
  entropy T*S    EENTRO =         0.01101221
  eigenvalues    EBANDS =      -303.54129849
  atomic energy  EATOM  =       948.51666364
  Solvation contrib.  Ediel  =         0.00000000
  ---------------------------------------------------
  free energy    TOTEN  =       -55.96094855 eV

  energy without entropy =      -55.97196076  energy(sigma->0) =      -55.96370160


--------------------------------------------------------------------------------------------------------




 average (electrostatic) potential at core
  the test charge radii are     0.6991  0.7215  0.5201
  (the norm of the test charge is              1.0000)
       1 -58.8069       2 -60.8893       3 -58.8041       4 -80.1305       5 -42.0634
       6 -42.3847       7 -42.3865       8 -42.3845       9 -42.3846      10 -42.0601
 
 
 
 E-fermi :  -5.4970     XC(G=0):  -0.2013     alpha+bet : -0.0677


 k-point     1 :       0.0000    0.0000    0.0000
  band No.  band energies     occupation 
      1     -25.9298      2.00000
      2     -19.1188      2.00000
      3     -17.5567      2.00000
      4     -13.0481      2.00000
      5     -11.3360      2.00000
      6     -11.2123      2.00000
      7     -10.9502      2.00000
      8      -9.8013      2.00000
      9      -9.4849      2.00000
     10      -9.1708      2.00000
     11      -8.5381      2.00000
     12      -5.6236      2.00000
     13      -1.7229      0.00000
     14      -0.6942      0.00000
     15       0.0374      0.00000
     16       0.0705      0.00000
     17       0.1851      0.00000
     18       0.2512      0.00000
     19       0.3153      0.00000
     20       0.3699      0.00000
     21       0.5145      0.00000
     22       0.5172      0.00000
     23       0.5460      0.00000
     24       0.5748      0.00000


--------------------------------------------------------------------------------------------------------


 soft charge-density along one line, spin component           1
         0         1         2         3         4         5         6         7         8         9
 total charge-density along one line
 
 pseudopotential strength for first ion, spin component:           1
 10.255  13.638   0.000  -0.001   0.001  -0.000   0.002  -0.003
 13.638  18.137   0.000  -0.001   0.001  -0.000   0.003  -0.004
  0.000   0.000  -4.379  -0.000   0.000   8.567   0.000  -0.000
 -0.001  -0.001  -0.000  -4.378  -0.000   0.000   8.566   0.001
  0.001   0.001   0.000  -0.000  -4.378  -0.000   0.001   8.566
 -0.000  -0.000   8.567   0.000  -0.000 -18.900  -0.000   0.000
  0.002   0.003   0.000   8.566   0.001  -0.000 -18.897  -0.002
 -0.003  -0.004  -0.000   0.001   8.566   0.000  -0.002 -18.897
 total augmentation occupancy for first ion, spin component:           1
  7.803  -3.403   0.005   0.013   0.037   0.001   0.011   0.015
 -3.403   1.519  -0.005  -0.004  -0.040  -0.001  -0.010  -0.012
  0.005  -0.005   1.621  -0.002   0.002   0.138   0.000   0.000
  0.013  -0.004  -0.002   1.639  -0.029   0.000   0.142   0.001
  0.037  -0.040   0.002  -0.029   1.653   0.000   0.001   0.142
  0.001  -0.001   0.138   0.000   0.000   0.012   0.000   0.000
  0.011  -0.010   0.000   0.142   0.001   0.000   0.013   0.001
  0.015  -0.012   0.000   0.001   0.142   0.000   0.001   0.013


------------------------ aborting loop because EDIFF is reached ----------------------------------------



 DIPCOR: dipole corrections for dipol
 direction  3 min pos     6,
 dipolmoment           0.000000      0.000000      0.598047 electrons x Angstroem
 Tr[quadrupol]     -4268.326332

 energy correction for charged system         0.000000 eV
 dipol+quadrupol energy correction            0.004467 eV
 added-field ion interaction          0.000000 eV  (added to PSCEN)

 
  *************** adding dipol energy to TOTEN NOW **************** 
    CHARGE:  cpu time    0.13: real time    0.13
    FORLOC:  cpu time    0.09: real time    0.09
    FORNL :  cpu time    0.24: real time    0.24
    STRESS:  cpu time    0.84: real time    0.84
    FORCOR:  cpu time    0.88: real time    0.89
    FORHAR:  cpu time    0.24: real time    0.25
    MIXING:  cpu time    0.06: real time    0.06
    OFIELD:  cpu time    0.00: real time    0.00

  Hirshfeld-DOM and Hirshfeld charges and relative Volumes:   
            ion         q(e)           q(e)           rel_vol 
   -----------------------------------------------------------
      1     C          -0.167         -0.117          0.835
      2     C           0.225          0.153          0.661
[...]
      8.859303  9.944728  9.391614     0.252031    0.009742    0.279682  
      9.766991  9.980363 10.600733    -0.274704   -0.014320   -0.108036  
     11.250704 10.062925 10.323418     0.357274    0.018789   -0.028378  
      9.325526  9.946266 11.743510     0.041037    0.001927    0.016889  
      7.810301  9.881379  9.701645    -0.030544    0.004347   -0.249558  
      9.113263  9.085413  8.751268    -0.243853    0.140167   -0.242992  
      9.013713 10.846040  8.777650    -0.230897   -0.158967   -0.248004  
     11.571137  9.205183  9.711590    -0.313652   -0.152782    0.009218  
     11.475806 10.966546  9.735106    -0.327352    0.118486    0.015011  
     11.813257 10.081157 11.263466    -0.177750   -0.008290    0.153880  
 
  13 f  =   39.774228 THz   249.908845 2PiTHz 1326.725398 cm-1   164.493044 meV
             X         Y         Z           dx          dy          dz
      8.859303  9.944728  9.391614    -0.155985   -0.005202   -0.256272  
      9.766991  9.980363 10.600733    -0.015635   -0.000532    0.018353  
     11.250704 10.062925 10.323418     0.310214    0.016153   -0.083363  
      9.325526  9.946266 11.743510     0.003633    0.000019   -0.005075  
      7.810301  9.881379  9.701645     0.066339   -0.000704    0.290468  
      9.113263  9.085413  8.751268     0.211686   -0.168216    0.269881  
      9.013713 10.846040  8.777650     0.193081    0.182680    0.275407  
     11.571137  9.205183  9.711590    -0.344476   -0.200371    0.056540  
     11.475806 10.966546  9.735106    -0.363801    0.161622    0.064654  
     11.813257 10.081157 11.263466    -0.259519   -0.011610    0.180383  
 
  14 f  =   36.040394 THz   226.448475 2PiTHz 1202.178111 cm-1   149.051143 meV
             X         Y         Z           dx          dy          dz
      8.859303  9.944728  9.391614    -0.215777   -0.010436    0.016479  
      9.766991  9.980363 10.600733     0.692958    0.030889    0.268521  
     11.250704 10.062925 10.323418    -0.150443   -0.005329   -0.155479  
      9.325526  9.946266 11.743510    -0.119948   -0.005478   -0.049106  
      7.810301  9.881379  9.701645    -0.156489   -0.006067   -0.318501  
      9.113263  9.085413  8.751268    -0.006972    0.088066   -0.113033  
      9.013713 10.846040  8.777650     0.001374   -0.085924   -0.118566  
     11.571137  9.205183  9.711590    -0.076286   -0.091094    0.081279  
     11.475806 10.966546  9.735106    -0.086124    0.079857    0.082660  
     11.813257 10.081157 11.263466    -0.331339   -0.019848    0.128935  
 
  15 f  =   32.092691 THz   201.644322 2PiTHz 1070.496895 cm-1   132.724747 meV
             X         Y         Z           dx          dy          dz
      8.859303  9.944728  9.391614    -0.013239    0.319015    0.001255  
      9.766991  9.980363 10.600733     0.026938   -0.571588   -0.005730  
     11.250704 10.062925 10.323418    -0.015804    0.318445   -0.000789  
      9.325526  9.946266 11.743510    -0.007300    0.123282    0.004067  
      7.810301  9.881379  9.701645     0.015643   -0.211770    0.004566  
      9.113263  9.085413  8.751268     0.138143   -0.071484    0.256122  
      9.013713 10.846040  8.777650    -0.136315   -0.076348   -0.259090  
     11.571137  9.205183  9.711590    -0.267898   -0.091162    0.098019  
     11.475806 10.966546  9.735106     0.282643   -0.056542   -0.096428  
     11.813257 10.081157 11.263466     0.006344   -0.212371   -0.000653  
 
  16 f  =   31.280076 THz   196.538515 2PiTHz 1043.390998 cm-1   129.364043 meV
             X         Y         Z           dx          dy          dz
      8.859303  9.944728  9.391614     0.286156    0.013174   -0.232063  
      9.766991  9.980363 10.600733    -0.036584    0.004382    0.097695  
     11.250704 10.062925 10.323418    -0.054609   -0.001665   -0.364448  
      9.325526  9.946266 11.743510    -0.119213   -0.010961    0.307440  
      7.810301  9.881379  9.701645     0.197280    0.010024    0.351531  
      9.113263  9.085413  8.751268    -0.245398   -0.065548   -0.095928  
      9.013713 10.846040  8.777650    -0.243718    0.043467   -0.083545  
     11.571137  9.205183  9.711590     0.244865   -0.043002    0.098713  
     11.475806 10.966546  9.735106     0.232278    0.066406    0.100821  
     11.813257 10.081157 11.263466    -0.384294   -0.021428    0.125405  
 
  17 f  =   25.669439 THz   161.285844 2PiTHz  856.240306 cm-1   106.160306 meV
             X         Y         Z           dx          dy          dz
      8.859303  9.944728  9.391614    -0.074178   -0.015790    0.370841  
      9.766991  9.980363 10.600733    -0.266348   -0.009392   -0.100502  
     11.250704 10.062925 10.323418     0.201350    0.020822   -0.326690  
      9.325526  9.946266 11.743510    -0.077728   -0.004340   -0.025799  
      7.810301  9.881379  9.701645    -0.130633    0.000872   -0.281559  
      9.113263  9.085413  8.751268     0.283113    0.052791    0.145003  
      9.013713 10.846040  8.777650     0.293782   -0.020585    0.155894  
     11.571137  9.205183  9.711590     0.307889   -0.025101    0.085845  
     11.475806 10.966546  9.735106     0.321042    0.050791    0.082381  
     11.813257 10.081157 11.263466    -0.283353   -0.022700    0.117442  
 
  18 f  =   25.230533 THz   158.528115 2PiTHz  841.599970 cm-1   104.345135 meV
             X         Y         Z           dx          dy          dz
      8.859303  9.944728  9.391614     0.014387   -0.305074   -0.013846  
      9.766991  9.980363 10.600733     0.006152    0.000347    0.002790  
     11.250704 10.062925 10.323418    -0.016094    0.304411    0.012498  
      9.325526  9.946266 11.743510     0.002158    0.000219    0.000879  
      7.810301  9.881379  9.701645    -0.011775    0.217771    0.004737  
      9.113263  9.085413  8.751268    -0.255790    0.093559   -0.331987  
      9.013713 10.846040  8.777650     0.233776    0.112053    0.328133  
     11.571137  9.205183  9.711590    -0.404353   -0.125956    0.074987  
     11.475806 10.966546  9.735106     0.401095   -0.081189   -0.080591  
     11.813257 10.081157 11.263466     0.018744   -0.217285   -0.004678  
 
  19 f  =   23.386557 THz   146.942072 2PiTHz  780.091551 cm-1    96.719060 meV
             X         Y         Z           dx          dy          dz
      8.859303  9.944728  9.391614    -0.365384   -0.013861   -0.405752  
      9.766991  9.980363 10.600733    -0.089121   -0.006865    0.239008  
     11.250704 10.062925 10.323418     0.538150    0.027526   -0.046048  
      9.325526  9.946266 11.743510    -0.130491   -0.010112    0.334265  
      7.810301  9.881379  9.701645    -0.143839   -0.007468   -0.235150  
      9.113263  9.085413  8.751268    -0.064160   -0.001548   -0.106551  
      9.013713 10.846040  8.777650    -0.068361   -0.004821   -0.111340  
     11.571137  9.205183  9.711590     0.119604    0.009211   -0.036422  
     11.475806 10.966546  9.735106     0.116128    0.005698   -0.034820  
     11.813257 10.081157 11.263466     0.265033    0.015581   -0.075290  
 
  20 f  =   15.467771 THz    97.186874 2PiTHz  515.949304 cm-1    63.969584 meV
             X         Y         Z           dx          dy          dz
      8.859303  9.944728  9.391614    -0.103919   -0.001793   -0.355659  
      9.766991  9.980363 10.600733    -0.238715   -0.003979   -0.095190  
     11.250704 10.062925 10.323418    -0.314708   -0.018589    0.193895  
      9.325526  9.946266 11.743510     0.614980    0.026569    0.235752  
      7.810301  9.881379  9.701645    -0.083402   -0.004643   -0.284139  
      9.113263  9.085413  8.751268     0.083750    0.008904   -0.071094  
      9.013713 10.846040  8.777650     0.076845   -0.000648   -0.076724  
     11.571137  9.205183  9.711590     0.009189   -0.006588    0.110721  
     11.475806 10.966546  9.735106     0.013499    0.002375    0.108682  
     11.813257 10.081157 11.263466    -0.255013   -0.016833    0.154340  
 
  21 f  =   14.079406 THz    88.463517 2PiTHz  469.638419 cm-1    58.227764 meV
             X         Y         Z           dx          dy          dz
      8.859303  9.944728  9.391614    -0.003217    0.044742   -0.003232  
      9.766991  9.980363 10.600733     0.031085   -0.666107   -0.007983  
     11.250704 10.062925 10.323418    -0.004796    0.045646   -0.000591  
      9.325526  9.946266 11.743510    -0.006290    0.275177    0.005229  
      7.810301  9.881379  9.701645    -0.014273    0.225389   -0.003079  
      9.113263  9.085413  8.751268    -0.210142    0.099791   -0.194760  
      9.013713 10.846040  8.777650     0.204091    0.117003    0.197585  
     11.571137  9.205183  9.711590     0.280892    0.124581   -0.002962  
     11.475806 10.966546  9.735106    -0.289425    0.093468    0.006976  
     11.813257 10.081157 11.263466    -0.013959    0.225211    0.003292  
 
  22 f  =   11.071272 THz    69.562852 2PiTHz  369.297865 cm-1    45.787116 meV
             X         Y         Z           dx          dy          dz
      8.859303  9.944728  9.391614    -0.416855   -0.023723    0.093644  
      9.766991  9.980363 10.600733     0.111136    0.007478   -0.279316  
     11.250704 10.062925 10.323418     0.253066    0.007699    0.345681  
      9.325526  9.946266 11.743510     0.127659    0.009132   -0.323589  
      7.810301  9.881379  9.701645    -0.051644   -0.005849    0.263244  
      9.113263  9.085413  8.751268    -0.264404   -0.019131   -0.013360  
      9.013713 10.846040  8.777650    -0.262542   -0.009502   -0.012372  
     11.571137  9.205183  9.711590     0.207384    0.004373    0.167191  
     11.475806 10.966546  9.735106     0.202407    0.013884    0.167238  
     11.813257 10.081157 11.263466    -0.136435   -0.009731    0.226595  
 
  23 f  =    3.549839 THz    22.304299 2PiTHz  118.409894 cm-1    14.680961 meV
             X         Y         Z           dx          dy          dz
      8.859303  9.944728  9.391614    -0.008322    0.154197    0.002023  
      9.766991  9.980363 10.600733    -0.001329    0.048310    0.000285  
     11.250704 10.062925 10.323418    -0.006467    0.150369   -0.000300  
      9.325526  9.946266 11.743510     0.022511   -0.393851   -0.003735  
      7.810301  9.881379  9.701645    -0.020487    0.365777    0.004713  
      9.113263  9.085413  8.751268    -0.227443   -0.178986    0.206564  
      9.013713 10.846040  8.777650     0.246156   -0.146109   -0.211708  
     11.571137  9.205183  9.711590     0.043057   -0.171719    0.319855  
     11.475806 10.966546  9.735106    -0.024134   -0.166863   -0.326033  
     11.813257 10.081157 11.263466    -0.018439    0.373318    0.003572  
 
  24 f  =    1.397513 THz     8.780836 2PiTHz   46.616029 cm-1     5.779653 meV
             X         Y         Z           dx          dy          dz
      8.859303  9.944728  9.391614     0.040586   -0.210476   -0.069162  
      9.766991  9.980363 10.600733    -0.074176    0.190588    0.005488  
     11.250704 10.062925 10.323418    -0.038470   -0.090474    0.120228  
      9.325526  9.946266 11.743510    -0.216165    0.784699   -0.027182  
      7.810301  9.881379  9.701645    -0.001364    0.049555   -0.041652  
      9.113263  9.085413  8.751268    -0.024327   -0.174609    0.118127  
      9.013713 10.846040  8.777650     0.087573   -0.164315   -0.152380  
     11.571137  9.205183  9.711590    -0.016258   -0.144691    0.197597  
     11.475806 10.966546  9.735106     0.034020   -0.137771   -0.118828  
     11.813257 10.081157 11.263466    -0.040793    0.119681    0.049690  
 
  25 f  =    0.826354 THz     5.192133 2PiTHz   27.564187 cm-1     3.417525 meV
             X         Y         Z           dx          dy          dz
      8.859303  9.944728  9.391614     0.341555    0.515931   -0.174873  
      9.766991  9.980363 10.600733     0.049102    0.159357    0.055327  
     11.250704 10.062925 10.323418     0.127339    0.015902    0.440913  
      9.325526  9.946266 11.743510    -0.270273    0.005876   -0.067916  
      7.810301  9.881379  9.701645     0.076126    0.136025   -0.129544  
      9.113263  9.085413  8.751268     0.135954    0.200737   -0.104979  
      9.013713 10.846040  8.777650     0.150516    0.199587    0.036504  
     11.571137  9.205183  9.711590     0.051885    0.011894    0.124820  
     11.475806 10.966546  9.735106     0.112177    0.014342    0.171055  
     11.813257 10.081157 11.263466    -0.032783   -0.045445    0.169814  
 
  26 f  =    0.233069 THz     1.464418 2PiTHz    7.774358 cm-1     0.963898 meV
             X         Y         Z           dx          dy          dz
      8.859303  9.944728  9.391614     0.254284   -0.187534   -0.470259  
      9.766991  9.980363 10.600733     0.132317   -0.003129   -0.385259  
     11.250704 10.062925 10.323418     0.148365    0.220086   -0.237219  
      9.325526  9.946266 11.743510     0.030110   -0.039893   -0.493345  
      7.810301  9.881379  9.701645     0.066301   -0.070155   -0.163033  
      9.113263  9.085413  8.751268     0.111189   -0.069047   -0.100768  
      9.013713 10.846040  8.777650     0.070521   -0.070473   -0.160089  
     11.571137  9.205183  9.711590     0.096402    0.093731   -0.082347  
     11.475806 10.966546  9.735106     0.021137    0.089316   -0.037248  
     11.813257 10.081157 11.263466     0.015178    0.064255   -0.051906  
 
  27 f/i=    0.229911 THz     1.444574 2PiTHz    7.669010 cm-1     0.950836 meV
             X         Y         Z           dx          dy          dz
      8.859303  9.944728  9.391614     0.357074   -0.082762    0.196215  
      9.766991  9.980363 10.600733     0.421103    0.029383    0.145930  
     11.250704 10.062925 10.323418     0.405195    0.014239    0.052241  
      9.325526  9.946266 11.743510     0.554410    0.136864    0.197880  
      7.810301  9.881379  9.701645     0.105694    0.019874    0.074426  
      9.113263  9.085413  8.751268     0.069515   -0.066336    0.099849  
      9.013713 10.846040  8.777650     0.120272   -0.062146    0.005061  
     11.571137  9.205183  9.711590     0.104560    0.005261    0.007134  
     11.475806 10.966546  9.735106     0.105925    0.005285    0.012386  
     11.813257 10.081157 11.263466     0.134841    0.003757    0.004298  
 
  28 f/i=    0.419260 THz     2.634288 2PiTHz   13.985007 cm-1     1.733920 meV
             X         Y         Z           dx          dy          dz
      8.859303  9.944728  9.391614    -0.190868    0.545966    0.004695  
      9.766991  9.980363 10.600733     0.037987    0.279027   -0.158415  
     11.250704 10.062925 10.323418     0.005429    0.005814   -0.422806  
      9.325526  9.946266 11.743510     0.271325    0.321389   -0.094906  
      7.810301  9.881379  9.701645    -0.039933    0.170710    0.055371  
      9.113263  9.085413  8.751268    -0.111895    0.184008   -0.056370  
      9.013713 10.846040  8.777650    -0.066443    0.185404    0.039105  
     11.571137  9.205183  9.711590    -0.074793   -0.037938   -0.106929  
     11.475806 10.966546  9.735106     0.019555   -0.031750   -0.165858  
     11.813257 10.081157 11.263466     0.049867    0.002091   -0.150981  
 
  29 f/i=    0.777539 THz     4.885420 2PiTHz   25.935898 cm-1     3.215643 meV
             X         Y         Z           dx          dy          dz
      8.859303  9.944728  9.391614    -0.069463   -0.007319    0.123053  
      9.766991  9.980363 10.600733    -0.057410    0.266872    0.106058  
     11.250704 10.062925 10.323418    -0.091173    0.769913    0.079151  
      9.325526  9.946266 11.743510    -0.028503    0.112442    0.131324  
      7.810301  9.881379  9.701645    -0.015463   -0.047360    0.041973  
      9.113263  9.085413  8.751268     0.020084   -0.012770    0.065251  
      9.013713 10.846040  8.777650    -0.067555   -0.016896    0.002347  
     11.571137  9.205183  9.711590     0.046269    0.300010   -0.047506  
     11.475806 10.966546  9.735106    -0.113982    0.289362    0.091930  
     11.813257 10.081157 11.263466    -0.019167    0.204804    0.018909  
 
  30 f/i=    1.632489 THz    10.257230 2PiTHz   54.453963 cm-1     6.751433 meV
             X         Y         Z           dx          dy          dz
      8.859303  9.944728  9.391614    -0.033519    0.067683   -0.013773  
      9.766991  9.980363 10.600733    -0.031892    0.005474   -0.013418  
     11.250704 10.062925 10.323418    -0.026811   -0.080662   -0.012059  
      9.325526  9.946266 11.743510    -0.036918    0.021900   -0.014948  
      7.810301  9.881379  9.701645    -0.031382    0.399966   -0.000055  
      9.113263  9.085413  8.751268    -0.268908   -0.233778    0.230420  
      9.013713 10.846040  8.777650     0.277442   -0.195993   -0.245128  
     11.571137  9.205183  9.711590    -0.062625    0.199887   -0.342194  
     11.475806 10.966546  9.735106     0.024172    0.195657    0.341739  
     11.813257 10.081157 11.263466     0.010455   -0.387509   -0.007362  
 
 Finite differences POTIM=  2.000000000000000E-002
  LATTYP: Found a simple cubic cell.
 ALAT       =    20.0000000000
  
  Lattice vectors:
  
 A1 = (  20.0000000000,   0.0000000000,   0.0000000000)
 A2 = (   0.0000000000,  20.0000000000,   0.0000000000)
 A3 = (   0.0000000000,   0.0000000000,  20.0000000000)


Analysis of symmetry for initial positions (statically):
=====================================================================
 Subroutine PRICEL returns:
 Original cell was already a primitive cell.
 

 Routine SETGRP: Setting up the symmetry group for a 
 simple cubic supercell.


 Subroutine GETGRP returns: Found  1 space group operations
 (whereof  1 operations were pure point group operations)
 out of a pool of 48 trial point group operations.


The static configuration has the point symmetry C_1 .


Analysis of symmetry for dynamics (positions and initial velocities):
=====================================================================
 Subroutine PRICEL returns:
 Original cell was already a primitive cell.
 

 Routine SETGRP: Setting up the symmetry group for a 
 simple cubic supercell.


 Subroutine GETGRP returns: Found  1 space group operations
 (whereof  1 operations were pure point group operations)
 out of a pool of 48 trial point group operations.


The dynamic configuration has the point symmetry C_1 .
 
 KPOINTS:  Automatic mesh                         

Automatic generation of k-mesh.
Space group operators:
 irot       det(A)        alpha          n_x          n_y          n_z        tau_x        tau_y        tau_z
    1     1.000000     0.000000     1.000000     0.000000     0.000000     0.000000     0.000000     0.000000
 
 Subroutine IBZKPT returns following result:
 ===========================================
 
 Found      1 irreducible k-points:
 
 Following reciprocal coordinates:
            Coordinates               Weight
  0.000000  0.000000  0.000000      1.000000
 
 Following cartesian coordinates:
            Coordinates               Weight
  0.000000  0.000000  0.000000      1.000000
 
     LOOP+:  cpu time   38.42: real time   38.42
    4ORBIT:  cpu time    0.00: real time    0.00

 total amount of memory used by VASP on root node   173767. kBytes
========================================================================

   base      :      30000. kBytes
   nonlr-proj:        786. kBytes
   fftplans  :      36243. kBytes
   grid      :      99737. kBytes
   one-center:         30. kBytes
   wavefun   :       6971. kBytes
 
  
  
 General timing and accounting informations for this job:
 ========================================================
  
                  Total CPU time used (sec):     2126.312
                            User time (sec):     2081.288
                          System time (sec):       45.024
                         Elapsed time (sec):     2127.732
  
                   Maximum memory used (kb):      274604.
                   Average memory used (kb):           0.
  
                          Minor page faults:     25065842
                          Major page faults:          103
                 Voluntary context switches:         1028
