 vasp.5.3.5 31Mar14 (build Jan 31 2018 16:04:57) complex                        
  
 executed on             LinuxIFC date 2018.12.07  13:49:22
 running on    8 total cores
 distrk:  each k-point on    8 cores,    1 groups
 distr:  one band on NCORES_PER_BAND=   1 cores,    8 groups


--------------------------------------------------------------------------------------------------------


 INCAR:
 POTCAR:    PAW_PBE H 15Jun2001                   

 ----------------------------------------------------------------------------- 
|                                                                             |
|           W    W    AA    RRRRR   N    N  II  N    N   GGGG   !!!           |
|           W    W   A  A   R    R  NN   N  II  NN   N  G    G  !!!           |
|           W    W  A    A  R    R  N N  N  II  N N  N  G       !!!           |
|           W WW W  AAAAAA  RRRRR   N  N N  II  N  N N  G  GGG   !            |
|           WW  WW  A    A  R   R   N   NN  II  N   NN  G    G                |
|           W    W  A    A  R    R  N    N  II  N    N   GGGG   !!!           |
|                                                                             |
|      For optimal performance we recommend to set                            |
|        NCORE= 4 - approx SQRT( number of cores)                             |
|      NCORE specifies how many cores store one orbital (NPAR=cpu/NCORE).     |
|      This setting can  greatly improve the performance of VASP for DFT.     |
|      The default, NPAR=number of cores might be grossly inefficient         |
|      on modern multi-core architectures or massively parallel machines.     |
|      Do your own testing !!!!                                               |
|      Unfortunately you need to use the default for GW and RPA calculations. |
|      (for HF NCORE is supported but not extensively tested yet)             |
|                                                                             |
 ----------------------------------------------------------------------------- 

 POTCAR:    PAW_PBE H 15Jun2001                   
   VRHFIN =H: ultrasoft test                                                    
   LEXCH  = PE                                                                  
   EATOM  =    12.4884 eV,    0.9179 Ry                                         
                                                                                
   TITEL  = PAW_PBE H 15Jun2001                                                 
   LULTRA =        F    use ultrasoft PP ?                                      
   IUNSCR =        0    unscreen: 0-lin 1-nonlin 2-no                           
   RPACOR =    0.000    partial core radius                                     
   POMASS =    1.000; ZVAL   =    1.000    mass and valenz                      
   RCORE  =    1.100    outmost cutoff radius                                   
   RWIGS  =    0.700; RWIGS  =    0.370    wigner-seitz radius (au A)           
   ENMAX  =  250.000; ENMIN  =  200.000 eV                                      
   RCLOC  =    0.701    cutoff for local pot                                    
   LCOR   =        T    correct aug charges                                     
   LPAW   =        T    paw PP                                                  
   EAUG   =  400.000                                                            
   RMAX   =    1.123    core radius for proj-oper                               
   RAUG   =    1.200    factor for augmentation sphere                          
   RDEP   =    1.112    radius for radial grids                                 
   RDEPT  =    0.926    core radius for aug-charge                              
                                                                                
   Atomic configuration                                                         
    2 entries                                                                   
     n  l   j            E        occ.                                          
     1  0  0.50        -6.4927   1.0000                                         
     2  1  0.50        -3.4015   0.0000                                         
   Description                                                                  
     l       E           TYP  RCUT    TYP  RCUT                                 
     0     -6.4927494     23  1.100                                             
     0      6.8029130     23  1.100                                             
     1     -4.0817478     23  1.100                                             
  local pseudopotential read in
  atomic valenz-charges read in
  non local Contribution for L=           0  read in
    real space projection operators read in
  non local Contribution for L=           0  read in
    real space projection operators read in
  non local Contribution for L=           1  read in
    real space projection operators read in
    PAW grid and wavefunctions read in
 
   number of l-projection  operators is LMAX  =           3
   number of lm-projection operators is LMMAX =           5
 

 ----------------------------------------------------------------------------- 
|                                                                             |
|  ADVICE TO THIS USER RUNNING 'VASP/VAMP'   (HEAR YOUR MASTER'S VOICE ...):  |
|                                                                             |
|      You have a (more or less) 'small supercell' and for smaller cells      |
|      it is recommended  to use the reciprocal-space projection scheme!      |
|      The real space optimization is not  efficient for small cells and it   |
|      is also less accurate ...                                              |
|      Therefore set LREAL=.FALSE. in the  INCAR file                         |
|                                                                             |
 ----------------------------------------------------------------------------- 

 Optimization of the real space projectors (new method)

 maximal supplied QI-value         = 34.20
 optimisation between [QCUT,QGAM] = [  9.92, 20.18] = [ 27.55,114.04] Ry 
 Optimized for a Real-space Cutoff    1.26 Angstroem

   l    n(q)    QCUT    max X(q) W(low)/X(q) W(high)/X(q)  e(spline) 
   0      8     9.919    19.460    0.50E-03    0.23E-03    0.29E-06
   0      8     9.919    12.209    0.48E-03    0.23E-03    0.28E-06
   1      7     9.919     4.655    0.17E-03    0.75E-03    0.30E-06
  PAW_PBE H 15Jun2001                   :
 energy of atom  1       EATOM=  -12.4884
 kinetic energy error for atom=    0.0098 (will be added to EATOM!!)
 
 
 POSCAR: H                                       
  positions in direct lattice
  velocities in cartesian coordinates
 exchange correlation table for  LEXCH =        8
   RHO(1)=    0.500       N(1)  =     2000
   RHO(2)=  100.500       N(2)  =     4000

 VTST: version 3.1, (03/28/14)

 CHAIN: initializing optimizer
 
 OPT: Using VASP Dynamics algorithm
 CHAIN: Read ICHAIN            0
 
 POSCAR: H                                       
  positions in direct lattice
  velocities in cartesian coordinates
 


--------------------------------------------------------------------------------------------------------


 ion  position               nearest neighbor table
   1  0.506  0.500  0.500-   2 0.75
   2  0.544  0.500  0.500-   1 0.75
 
  LATTYP: Found a simple cubic cell.
 ALAT       =    20.0000000000
  
  Lattice vectors:
  
 A1 = (  20.0000000000,   0.0000000000,   0.0000000000)
 A2 = (   0.0000000000,  20.0000000000,   0.0000000000)
 A3 = (   0.0000000000,   0.0000000000,  20.0000000000)


Analysis of symmetry for initial positions (statically):
=====================================================================
 Subroutine PRICEL returns:
 Original cell was already a primitive cell.
 

 Routine SETGRP: Setting up the symmetry group for a 
 simple cubic supercell.


 Subroutine GETGRP returns: Found 16 space group operations
 (whereof  8 operations were pure point group operations)
 out of a pool of 48 trial point group operations.


The static configuration has the point symmetry C_4v.
 The point group associated with its full space group is D_4h.


Analysis of symmetry for dynamics (positions and initial velocities):
=====================================================================
 Subroutine PRICEL returns:
 Original cell was already a primitive cell.
 

 Routine SETGRP: Setting up the symmetry group for a 
 simple cubic supercell.


 Subroutine GETGRP returns: Found 16 space group operations
 (whereof  8 operations were pure point group operations)
 out of a pool of 48 trial point group operations.


The dynamic configuration has the point symmetry C_4v.
 The point group associated with its full space group is D_4h.
 
 
 KPOINTS:  Automatic mesh                         

Automatic generation of k-mesh.
Space group operators:
 irot       det(A)        alpha          n_x          n_y          n_z        tau_x        tau_y        tau_z
    1     1.000000     0.000000     1.000000     0.000000     0.000000     0.000000     0.000000     0.000000
    2    -1.000000   180.000000     0.000000     0.707107     0.707107     0.000000     0.000000     0.000000
    3    -1.000000   180.000000     0.000000     0.000000     1.000000     0.000000     0.000000     0.000000
    4     1.000000    90.000000    -1.000000     0.000000     0.000000     0.000000     0.000000     0.000000
    5     1.000000   180.000000     1.000000     0.000000     0.000000     0.000000     0.000000     0.000000
    6     1.000000    90.000000     1.000000     0.000000     0.000000     0.000000     0.000000     0.000000
    7    -1.000000   180.000000     0.000000     1.000000     0.000000     0.000000     0.000000     0.000000
    8    -1.000000   180.000000     0.000000    -0.707107     0.707107     0.000000     0.000000     0.000000
    9    -1.000000     0.000000     1.000000     0.000000     0.000000     0.050000     0.000000     0.000000
   10     1.000000   180.000000     0.000000     0.707107     0.707107     0.050000     0.000000     0.000000
   11     1.000000   180.000000     0.000000     0.000000     1.000000     0.050000     0.000000     0.000000
   12    -1.000000    90.000000    -1.000000     0.000000     0.000000     0.050000     0.000000     0.000000
   13    -1.000000   180.000000     1.000000     0.000000     0.000000     0.050000     0.000000     0.000000
   14    -1.000000    90.000000     1.000000     0.000000     0.000000     0.050000     0.000000     0.000000
   15     1.000000   180.000000     0.000000     1.000000     0.000000     0.050000     0.000000     0.000000
   16     1.000000   180.000000     0.000000    -0.707107     0.707107     0.050000     0.000000     0.000000
 
 Subroutine IBZKPT returns following result:
 ===========================================
 
 Found      1 irreducible k-points:
 
 Following reciprocal coordinates:
            Coordinates               Weight
  0.000000  0.000000  0.000000      1.000000
 
 Following cartesian coordinates:
            Coordinates               Weight
  0.000000  0.000000  0.000000      1.000000
 
 
 Subroutine IBZKPT_HF returns following result:
 ==============================================
 
 Found      1 k-points in 1st BZ
 the following      1 k-points will be used (e.g. in the exchange kernel)
 Following reciprocal coordinates:   # in IRBZ
  0.000000  0.000000  0.000000       1 t-inv F


--------------------------------------------------------------------------------------------------------




 Dimension of arrays:
   k-points           NKPTS =      1   k-points in BZ     NKDIM =      1   number of bands    NBANDS=      8
   number of dos      NEDOS =    301   number of ions     NIONS =      2
   non local maximal  LDIM  =      3   non local SUM 2l+1 LMDIM =      5
   total plane-waves  NPLWV = 941192
   max r-space proj   IRMAX =   1043   max aug-charges    IRDMAX=    771
   dimension x,y,z NGX =    98 NGY =   98 NGZ =   98
   dimension x,y,z NGXF=   196 NGYF=  196 NGZF=  196
   support grid    NGXF=   196 NGYF=  196 NGZF=  196
   ions per type =               2
 NGX,Y,Z   is equivalent  to a cutoff of   8.15,  8.15,  8.15 a.u.
 NGXF,Y,Z  is equivalent  to a cutoff of  16.29, 16.29, 16.29 a.u.


 I would recommend the setting:
   dimension x,y,z NGX =    98 NGY =   98 NGZ =   98
 SYSTEM =  unknown system                          
 POSCAR =  H                                       

 Startparameter for this run:
   NWRITE =      2    write-flag & timer
   PREC   = normal    normal or accurate (medium, high low for compatibility)
   ISTART =      0    job   : 0-new  1-cont  2-samecut
   ICHARG =      2    charge: 1-file 2-atom 10-const
   ISPIN  =      1    spin polarized calculation?
   LNONCOLLINEAR =      F non collinear calculations
   LSORBIT =      F    spin-orbit coupling
   INIWAV =      1    electr: 0-lowe 1-rand  2-diag
   LASPH  =      F    aspherical Exc in radial PAW
   METAGGA=      F    non-selfconsistent MetaGGA calc.
   LSOL =      F    Solvation

 Electronic Relaxation 1
   ENCUT  =  400.0 eV  29.40 Ry    5.42 a.u.  32.61 32.61 32.61*2*pi/ulx,y,z
   ENINI  =  400.0     initial cutoff
   ENAUG  =  644.9 eV  augmentation charge cutoff
   NELM   =     60;   NELMIN=  2; NELMDL= -5     # of ELM steps 
   EDIFF  = 0.1E-05   stopping-criterion for ELM
   LREAL  =      T    real-space projection
   NLSPLINE    = F    spline interpolate recip. space projectors
   LCOMPAT=      F    compatible to vasp.4.4
   GGA_COMPAT  = T    GGA compatible to vasp.4.4-vasp.4.6
   LMAXPAW     = -100 max onsite density
   LMAXMIX     =    2 max onsite mixed and CHGCAR
   VOSKOWN=      0    Vosko Wilk Nusair interpolation
   ROPT   =   -0.00050
 Ionic relaxation
   EDIFFG = -.1E-01   stopping-criterion for IOM
   NSW    =     61    number of steps for IOM
   NBLOCK =      1;   KBLOCK =      1    inner block; outer block 
   IBRION =      5    ionic relax: 0-MD 1-quasi-New 2-CG
   NFREE  =      2    steps in history (QN), initial steepest desc. (CG)
   ISIF   =      2    stress and relaxation
   IWAVPR =     11    prediction:  0-non 1-charg 2-wave 3-comb
   ISYM   =      2    0-nonsym 1-usesym 2-fastsym
   LCORR  =      T    Harris-Foulkes like correction to forces

   POTIM  = 0.0200    time-step for ionic-motion
   TEIN   =    0.0    initial temperature
   TEBEG  =    0.0;   TEEND  =   0.0 temperature during run
   SMASS  =  -3.00    Nose mass-parameter (am)
   estimated Nose-frequenzy (Omega)   =  0.10E-29 period in steps =****** mass=  -0.914E-26a.u.
   SCALEE = 1.0000    scale energy and forces
   NPACO  =    256;   APACO  = 16.0  distance and # of slots for P.C.
   PSTRESS=    0.0 pullay stress

  Mass of Ions in am
   POMASS =   1.00
  Ionic Valenz
   ZVAL   =   1.00
  Atomic Wigner-Seitz radii
   RWIGS  =  -1.00
  virtual crystal weights 
   VCA    =   1.00
   NELECT =       2.0000    total number of electrons
   NUPDOWN=      -1.0000    fix difference up-down

 DOS related values:
   EMIN   =  10.00;   EMAX   =-10.00  energy-range for DOS
   EFERMI =   0.00
   ISMEAR =     2;   SIGMA  =   0.20  broadening in eV -4-tet -1-fermi 0-gaus

 Electronic relaxation 2 (details)
   IALGO  =     38    algorithm
   LDIAG  =      T    sub-space diagonalisation (order eigenvalues)
   LSUBROT=      F    optimize rotation matrix (better conditioning)
   TURBO    =      0    0=normal 1=particle mesh
   IRESTART =      0    0=no restart 2=restart with 2 vectors
   NREBOOT  =      0    no. of reboots
   NMIN     =      0    reboot dimension
   EREF     =   0.00    reference energy to select bands
   IMIX   =      4    mixing-type and parameters
     AMIX     =   0.40;   BMIX     =  1.00
     AMIX_MAG =   1.60;   BMIX_MAG =  1.00
     AMIN     =   0.10
     WC   =   100.;   INIMIX=   1;  MIXPRE=   1;  MAXMIX= -45

 Intra band minimization:
   WEIMIN = 0.0010     energy-eigenvalue tresh-hold
   EBREAK =  0.31E-07  absolut break condition
   DEPER  =   0.30     relativ break condition  

   TIME   =   0.40     timestep for ELM

  volume/ion in A,a.u.               =    4000.00     26993.33
  Fermi-wavevector in a.u.,A,eV,Ry     =   0.103131  0.194889  0.144711  0.010636
  Thomas-Fermi vector in A             =   0.684775
 
 Write flags
   LWAVE  =      F    write WAVECAR
   LCHARG =      F    write CHGCAR
   LVTOT  =      F    write LOCPOT, total local potential
   LVHAR  =      F    write LOCPOT, Hartree potential only
   LELF   =      F    write electronic localiz. function (ELF)
   LORBIT =      0    0 simple, 1 ext, 2 COOP (PROOUT)


 Dipole corrections
   LMONO  =      F    monopole corrections only (constant potential shift)
   LDIPOL =      F    correct potential (dipole corrections)
   IDIPOL =      3    1-x, 2-y, 3-z, 4-all directions 
   EPSILON=  1.0000000 bulk dielectric constant

 Exchange correlation treatment:
   GGA     =    PE    GGA type
   LEXCH   =     8    internal setting for exchange type
   VOSKOWN=      0    Vosko Wilk Nusair interpolation
   LHFCALC =     F    Hartree Fock is set to
   LHFONE  =     F    Hartree Fock one center treatment
   AEXX    =    0.0000 exact exchange contribution

 Linear response parameters
   LEPSILON=     F    determine dielectric tensor
   LRPA    =     F    only Hartree local field effects (RPA)
   LNABLA  =     F    use nabla operator in PAW spheres
   LVEL    =     F    velocity operator in full k-point grid
   LINTERFAST=   F  fast interpolation
   KINTER  =     0    interpolate to denser k-point grid
   CSHIFT  =0.1000    complex shift for real part using Kramers Kronig
   OMEGAMAX=  -1.0    maximum frequency
   DEG_THRESHOLD= 0.2000000E-02 threshold for treating states as degnerate
   RTIME   =    0.100 relaxation time in fs

 Orbital magnetization related:
   ORBITALMAG=     F  switch on orbital magnetization
   LCHIMAG   =     F  perturbation theory with respect to B field
   DQ        =  0.001000  dq finite difference perturbation B field



--------------------------------------------------------------------------------------------------------


 finite differences
 charge density and potential will be updated during run
 non-spin polarized calculation
 Variant of blocked Davidson
 Davidson routine will perform the subspace rotation
 perform sub-space diagonalisation
    after iterative eigenvector-optimisation
 modified Broyden-mixing scheme, WC =      100.0
 initial mixing is a Kerker type mixing with AMIX =  0.4000 and BMIX =      1.0000
 Hartree-type preconditioning will be used
 using additional bands            7
 real space projection scheme for non local part
 calculate Harris-corrections to forces 
   (improved forces if not selfconsistent)
 use gradient corrections 
 use of overlap-Matrix (Vanderbilt PP)
 Methfessel and Paxton  Order N= 2 SIGMA  =   0.20


--------------------------------------------------------------------------------------------------------


  energy-cutoff  :      400.00
  volume of cell :     8000.00
      direct lattice vectors                 reciprocal lattice vectors
    20.000000000  0.000000000  0.000000000     0.050000000  0.000000000  0.000000000
     0.000000000 20.000000000  0.000000000     0.000000000  0.050000000  0.000000000
     0.000000000  0.000000000 20.000000000     0.000000000  0.000000000  0.050000000

  length of vectors
    20.000000000 20.000000000 20.000000000     0.050000000  0.050000000  0.050000000


 
 k-points in units of 2pi/SCALE and weight:  Automatic mesh                         
   0.00000000  0.00000000  0.00000000       1.000
 
 k-points in reciprocal lattice and weights:  Automatic mesh                         
   0.00000000  0.00000000  0.00000000       1.000
 
 position of ions in fractional coordinates (direct lattice) 
   0.50622849  0.50000000  0.50000000
   0.54377151  0.50000000  0.50000000
 
 position of ions in cartesian coordinates  (Angst):
  10.12456982 10.00000000 10.00000000
  10.87543018 10.00000000 10.00000000
 


--------------------------------------------------------------------------------------------------------


 k-point  1 :   0.0000 0.0000 0.0000  plane waves:  145165

 maximum and minimum number of plane-waves per node :    145165   145165

 maximum number of plane-waves:    145165
 maximum index in each direction: 
   IXMAX=   32   IYMAX=   32   IZMAX=   32
   IXMIN=  -32   IYMIN=  -32   IZMIN=  -32

 WARNING: aliasing errors must be expected set NGX to 130 to avoid them
 WARNING: aliasing errors must be expected set NGY to 130 to avoid them
 WARNING: aliasing errors must be expected set NGZ to 130 to avoid them
 aliasing errors are usually negligible using standard VASP settings
 and one can safely disregard these warnings

 serial   3D FFT for wavefunctions
 parallel 3D FFT for charge:
    minimum data exchange during FFTs selected (reduces bandwidth)


 total amount of memory used by VASP on root node   152900. kBytes
========================================================================

   base      :      30000. kBytes
   nonlr-proj:        119. kBytes
   fftplans  :      36243. kBytes
   grid      :      84214. kBytes
   one-center:          2. kBytes
   wavefun   :       2322. kBytes
 
     INWAV:  cpu time    0.00: real time    0.00
 Broyden mixing: mesh for mixing (old mesh)
   NGX = 65   NGY = 65   NGZ = 65
  (NGX  =196   NGY  =196   NGZ  =196)
  gives a total of 274625 points

 initial charge density was supplied:
 charge density of overlapping atoms calculated
 number of electron       2.0000000 magnetization 
 keeping initial charge density in first step


--------------------------------------------------------------------------------------------------------


 Maximum index for non-local projection operator          968
 Maximum index for augmentation-charges           61 (set IRDMAX)


--------------------------------------------------------------------------------------------------------


 First call to EWALD:  gamma=   0.089
 Maximum number of real-space cells 3x 3x 3
 Maximum number of reciprocal cells 3x 3x 3

 FEWALD executed in parallel
    FEWALD:  cpu time    0.00: real time    0.00


----------------------------------------- Iteration    1(   1)  ---------------------------------------


    POTLOK:  cpu time    0.83: real time    0.83
    SETDIJ:  cpu time    0.00: real time    0.00
     EDDAV:  cpu time    0.39: real time    0.41
       DOS:  cpu time    0.00: real time    0.00
    --------------------------------------------
      LOOP:  cpu time    1.22: real time    1.24

 eigenvalue-minimisations  :    24
 total energy-change (2. order) :-0.6500425E+00  (-0.2565288E+02)
 number of electron       2.0000000 magnetization 
 augmentation part        2.0000000 magnetization 

 Free energy of the ion-electron system (eV)
  ---------------------------------------------------
  alpha Z        PSCENC =         0.00121808
  Ewald energy   TEWEN  =        15.09419847
  -Hartree energ DENC   =       -24.58226082
  -exchange      EXHF   =         0.00000000
  -V(xc)+E(xc)   XCENC  =         4.34921885
  PAW double counting   =         4.26805487       -4.28581044
  entropy T*S    EENTRO =         0.01101221
  eigenvalues    EBANDS =       -20.46293902
  atomic energy  EATOM  =        24.95726533
  Solvation contrib.  Ediel  =         0.00000000
  ---------------------------------------------------
  free energy    TOTEN  =        -0.65004247 eV

  energy without entropy =       -0.66105467  energy(sigma->0) =       -0.65279552


--------------------------------------------------------------------------------------------------------




----------------------------------------- Iteration    1(   2)  ---------------------------------------


     EDDAV:  cpu time    0.38: real time    0.38
       DOS:  cpu time    0.00: real time    0.00
    --------------------------------------------
      LOOP:  cpu time    0.38: real time    0.38

 eigenvalue-minimisations  :    24
 total energy-change (2. order) :-0.6739568E+01  (-0.6739568E+01)
 number of electron       2.0000000 magnetization 
 augmentation part        2.0000000 magnetization 

 Free energy of the ion-electron system (eV)
  ---------------------------------------------------
  alpha Z        PSCENC =         0.00121808
  Ewald energy   TEWEN  =        15.09419847
  -Hartree energ DENC   =       -24.58226082
  -exchange      EXHF   =         0.00000000
  -V(xc)+E(xc)   XCENC  =         4.34921885
  PAW double counting   =         4.26805487       -4.28581044
  entropy T*S    EENTRO =         0.01101221
  eigenvalues    EBANDS =       -27.20250718
  atomic energy  EATOM  =        24.95726533
  Solvation contrib.  Ediel  =         0.00000000
  ---------------------------------------------------
  free energy    TOTEN  =        -7.38961062 eV

  energy without entropy =       -7.40062283  energy(sigma->0) =       -7.39236368


--------------------------------------------------------------------------------------------------------




----------------------------------------- Iteration    1(   3)  ---------------------------------------


     EDDAV:  cpu time    0.38: real time    0.38
       DOS:  cpu time    0.00: real time    0.00
    --------------------------------------------
      LOOP:  cpu time    0.38: real time    0.38

 eigenvalue-minimisations  :    24
 total energy-change (2. order) :-0.3592894E-01  (-0.3592894E-01)
 number of electron       2.0000000 magnetization 
 augmentation part        2.0000000 magnetization 

 Free energy of the ion-electron system (eV)
  ---------------------------------------------------
  alpha Z        PSCENC =         0.00121808
  Ewald energy   TEWEN  =        15.09419847
  -Hartree energ DENC   =       -24.58226082
  -exchange      EXHF   =         0.00000000
  -V(xc)+E(xc)   XCENC  =         4.34921885
  PAW double counting   =         4.26805487       -4.28581044
  entropy T*S    EENTRO =         0.01101221
  eigenvalues    EBANDS =       -27.23843612
  atomic energy  EATOM  =        24.95726533
  Solvation contrib.  Ediel  =         0.00000000
  ---------------------------------------------------
  free energy    TOTEN  =        -7.42553956 eV

  energy without entropy =       -7.43655177  energy(sigma->0) =       -7.42829261


--------------------------------------------------------------------------------------------------------




----------------------------------------- Iteration    1(   4)  ---------------------------------------


     EDDAV:  cpu time    0.40: real time    0.40
       DOS:  cpu time    0.00: real time    0.00
    --------------------------------------------
      LOOP:  cpu time    0.40: real time    0.40

 eigenvalue-minimisations  :    24
 total energy-change (2. order) :-0.1777818E-04  (-0.1777986E-04)
 number of electron       2.0000000 magnetization 
 augmentation part        2.0000000 magnetization 

 Free energy of the ion-electron system (eV)
  ---------------------------------------------------
  alpha Z        PSCENC =         0.00121808
  Ewald energy   TEWEN  =        15.09419847
  -Hartree energ DENC   =       -24.58226082
  -exchange      EXHF   =         0.00000000
  -V(xc)+E(xc)   XCENC  =         4.34921885
  PAW double counting   =         4.26805487       -4.28581044
  entropy T*S    EENTRO =         0.01101221
  eigenvalues    EBANDS =       -27.23845389
  atomic energy  EATOM  =        24.95726533
  Solvation contrib.  Ediel  =         0.00000000
  ---------------------------------------------------
  free energy    TOTEN  =        -7.42555734 eV

  energy without entropy =       -7.43656955  energy(sigma->0) =       -7.42831039


--------------------------------------------------------------------------------------------------------




----------------------------------------- Iteration    1(   5)  ---------------------------------------


     EDDAV:  cpu time    0.49: real time    0.49
       DOS:  cpu time    0.00: real time    0.00
    CHARGE:  cpu time    0.18: real time    0.18
    MIXING:  cpu time    0.02: real time    0.02
    --------------------------------------------
      LOOP:  cpu time    0.69: real time    0.69

 eigenvalue-minimisations  :    32
 total energy-change (2. order) :-0.1130842E-07  (-0.1024057E-07)
 number of electron       2.0000014 magnetization 
 augmentation part        0.0460274 magnetization 

 Broyden mixing:
  rms(total) = 0.44492E+00    rms(broyden)= 0.44476E+00
  rms(prec ) = 0.47949E+00
  weight for this iteration     100.00

 Free energy of the ion-electron system (eV)
  ---------------------------------------------------
  alpha Z        PSCENC =         0.00121808
  Ewald energy   TEWEN  =        15.09419847
  -Hartree energ DENC   =       -24.58226082
  -exchange      EXHF   =         0.00000000
  -V(xc)+E(xc)   XCENC  =         4.34921885
  PAW double counting   =         4.26805487       -4.28581044
  entropy T*S    EENTRO =         0.01101221
  eigenvalues    EBANDS =       -27.23845390
  atomic energy  EATOM  =        24.95726533
  Solvation contrib.  Ediel  =         0.00000000
  ---------------------------------------------------
  free energy    TOTEN  =        -7.42555735 eV

  energy without entropy =       -7.43656956  energy(sigma->0) =       -7.42831040


--------------------------------------------------------------------------------------------------------




----------------------------------------- Iteration    1(   6)  ---------------------------------------


    POTLOK:  cpu time    0.75: real time    0.75
    SETDIJ:  cpu time    0.00: real time    0.00
     EDDAV:  cpu time    0.28: real time    0.28
       DOS:  cpu time    0.00: real time    0.00
    CHARGE:  cpu time    0.18: real time    0.18
    MIXING:  cpu time    0.02: real time    0.02
    --------------------------------------------
      LOOP:  cpu time    1.24: real time    1.24

 eigenvalue-minimisations  :    16
 total energy-change (2. order) : 0.4409201E+00  (-0.2218923E-01)
 number of electron       2.0000014 magnetization 
 augmentation part        0.0442184 magnetization 

 Broyden mixing:
  rms(total) = 0.24343E+00    rms(broyden)= 0.24342E+00
  rms(prec ) = 0.26410E+00
  weight for this iteration     100.00

 eigenvalues of (default mixing * dielectric matrix)
  average eigenvalue GAMMA=   2.1843
  2.1843

 Free energy of the ion-electron system (eV)
  ---------------------------------------------------
  alpha Z        PSCENC =         0.00121808
  Ewald energy   TEWEN  =        15.09419847
  -Hartree energ DENC   =       -27.06335312
  -exchange      EXHF   =         0.00000000
  -V(xc)+E(xc)   XCENC  =         4.70498919
  PAW double counting   =        10.99318351      -11.02430411
  entropy T*S    EENTRO =         0.01101221
  eigenvalues    EBANDS =       -24.65884684
  atomic energy  EATOM  =        24.95726533
  Solvation contrib.  Ediel  =         0.00000000
  ---------------------------------------------------
  free energy    TOTEN  =        -6.98463728 eV

  energy without entropy =       -6.99564949  energy(sigma->0) =       -6.98739034


--------------------------------------------------------------------------------------------------------




----------------------------------------- Iteration    1(   7)  ---------------------------------------


    POTLOK:  cpu time    0.74: real time    0.75
    SETDIJ:  cpu time    0.00: real time    0.00
     EDDAV:  cpu time    0.39: real time    0.39
       DOS:  cpu time    0.00: real time    0.00
    CHARGE:  cpu time    0.21: real time    0.21
    MIXING:  cpu time    0.03: real time    0.03
    --------------------------------------------
      LOOP:  cpu time    1.38: real time    1.38

 eigenvalue-minimisations  :    24
 total energy-change (2. order) : 0.2405126E+00  (-0.5229509E-01)
 number of electron       2.0000013 magnetization 
 augmentation part        0.0413479 magnetization 

 Broyden mixing:
  rms(total) = 0.29390E-01    rms(broyden)= 0.29294E-01
  rms(prec ) = 0.32539E-01
  weight for this iteration     100.00

 eigenvalues of (default mixing * dielectric matrix)
  average eigenvalue GAMMA=   2.6510
  2.6510  2.6510

 Free energy of the ion-electron system (eV)
  ---------------------------------------------------
  alpha Z        PSCENC =         0.00121808
  Ewald energy   TEWEN  =        15.09419847
  -Hartree energ DENC   =       -30.83928033
  -exchange      EXHF   =         0.00000000
  -V(xc)+E(xc)   XCENC  =         5.25091932
  PAW double counting   =        24.28961951      -24.34187698
  entropy T*S    EENTRO =         0.01101221
  eigenvalues    EBANDS =       -21.16720032
  atomic energy  EATOM  =        24.95726533
  Solvation contrib.  Ediel  =         0.00000000
  ---------------------------------------------------
  free energy    TOTEN  =        -6.74412472 eV

  energy without entropy =       -6.75513693  energy(sigma->0) =       -6.74687777


--------------------------------------------------------------------------------------------------------




----------------------------------------- Iteration    1(   8)  ---------------------------------------


    POTLOK:  cpu time    0.78: real time    0.78
    SETDIJ:  cpu time    0.00: real time    0.00
     EDDAV:  cpu time    0.38: real time    0.39
       DOS:  cpu time    0.00: real time    0.00
    CHARGE:  cpu time    0.19: real time    0.19
    MIXING:  cpu time    0.02: real time    0.02
    --------------------------------------------
      LOOP:  cpu time    1.38: real time    1.38

 eigenvalue-minimisations  :    24
 total energy-change (2. order) :-0.3309943E-02  (-0.4978365E-03)
 number of electron       2.0000013 magnetization 
 augmentation part        0.0415245 magnetization 

 Broyden mixing:
  rms(total) = 0.26256E-01    rms(broyden)= 0.26255E-01
  rms(prec ) = 0.28864E-01
  weight for this iteration     100.00

 eigenvalues of (default mixing * dielectric matrix)
  average eigenvalue GAMMA=   1.9744
  2.6579  2.4185  0.8467

 Free energy of the ion-electron system (eV)
  ---------------------------------------------------
  alpha Z        PSCENC =         0.00121808
  Ewald energy   TEWEN  =        15.09419847
  -Hartree energ DENC   =       -30.78048644
  -exchange      EXHF   =         0.00000000
  -V(xc)+E(xc)   XCENC  =         5.22756482
  PAW double counting   =        23.20224942      -23.24855987
  entropy T*S    EENTRO =         0.01101221
  eigenvalues    EBANDS =       -21.21189668
  atomic energy  EATOM  =        24.95726533
  Solvation contrib.  Ediel  =         0.00000000
  ---------------------------------------------------
  free energy    TOTEN  =        -6.74743466 eV

  energy without entropy =       -6.75844687  energy(sigma->0) =       -6.75018771


--------------------------------------------------------------------------------------------------------




----------------------------------------- Iteration    1(   9)  ---------------------------------------


    POTLOK:  cpu time    0.77: real time    0.77
    SETDIJ:  cpu time    0.00: real time    0.00
     EDDAV:  cpu time    0.38: real time    0.39
       DOS:  cpu time    0.00: real time    0.00
    CHARGE:  cpu time    0.18: real time    0.19
    MIXING:  cpu time    0.02: real time    0.02
    --------------------------------------------
      LOOP:  cpu time    1.37: real time    1.37

 eigenvalue-minimisations  :    24
 total energy-change (2. order) : 0.3183187E-02  (-0.4928835E-03)
 number of electron       2.0000013 magnetization 
 augmentation part        0.0412564 magnetization 

 Broyden mixing:
  rms(total) = 0.44247E-02    rms(broyden)= 0.44157E-02
  rms(prec ) = 0.63136E-02
  weight for this iteration     100.00

 eigenvalues of (default mixing * dielectric matrix)
  average eigenvalue GAMMA=   2.5759
  4.2426  0.9703  2.8502  2.2404

 Free energy of the ion-electron system (eV)
  ---------------------------------------------------
  alpha Z        PSCENC =         0.00121808
  Ewald energy   TEWEN  =        15.09419847
  -Hartree energ DENC   =       -31.18294418
  -exchange      EXHF   =         0.00000000
  -V(xc)+E(xc)   XCENC  =         5.28244317
  PAW double counting   =        24.57649047      -24.62487015
  entropy T*S    EENTRO =         0.01101221
  eigenvalues    EBANDS =       -20.85906488
  atomic energy  EATOM  =        24.95726533
  Solvation contrib.  Ediel  =         0.00000000
  ---------------------------------------------------
  free energy    TOTEN  =        -6.74425148 eV

  energy without entropy =       -6.75526368  energy(sigma->0) =       -6.74700453


--------------------------------------------------------------------------------------------------------




----------------------------------------- Iteration    1(  10)  ---------------------------------------


    POTLOK:  cpu time    0.77: real time    0.77
    SETDIJ:  cpu time    0.00: real time    0.00
     EDDAV:  cpu time    0.38: real time    0.38
       DOS:  cpu time    0.00: real time    0.00
    CHARGE:  cpu time    0.18: real time    0.18
    MIXING:  cpu time    0.02: real time    0.02
    --------------------------------------------
      LOOP:  cpu time    1.37: real time    1.37

 eigenvalue-minimisations  :    24
 total energy-change (2. order) :-0.1400215E-02  (-0.9280408E-04)
 number of electron       2.0000013 magnetization 
 augmentation part        0.0411818 magnetization 

 Broyden mixing:
  rms(total) = 0.11674E-02    rms(broyden)= 0.11625E-02
  rms(prec ) = 0.20092E-02
  weight for this iteration     100.00

 eigenvalues of (default mixing * dielectric matrix)
  average eigenvalue GAMMA=   2.2528
  4.2707  2.4966  2.4108  1.0430  1.0430

 Free energy of the ion-electron system (eV)
  ---------------------------------------------------
  alpha Z        PSCENC =         0.00121808
  Ewald energy   TEWEN  =        15.09419847
  -Hartree energ DENC   =       -31.36991520
  -exchange      EXHF   =         0.00000000
  -V(xc)+E(xc)   XCENC  =         5.29877989
  PAW double counting   =        24.53429592      -24.58314337
  entropy T*S    EENTRO =         0.01101221
  eigenvalues    EBANDS =       -20.68936301
  atomic energy  EATOM  =        24.95726533
  Solvation contrib.  Ediel  =         0.00000000
  ---------------------------------------------------
  free energy    TOTEN  =        -6.74565169 eV

  energy without entropy =       -6.75666390  energy(sigma->0) =       -6.74840474


--------------------------------------------------------------------------------------------------------




----------------------------------------- Iteration    1(  11)  ---------------------------------------


    POTLOK:  cpu time    0.78: real time    0.78
    SETDIJ:  cpu time    0.00: real time    0.00
     EDDAV:  cpu time    0.28: real time    0.28
       DOS:  cpu time    0.00: real time    0.00
    CHARGE:  cpu time    0.18: real time    0.19
    MIXING:  cpu time    0.03: real time    0.03
    --------------------------------------------
      LOOP:  cpu time    1.28: real time    1.28

 eigenvalue-minimisations  :    16
 total energy-change (2. order) :-0.7072315E-03  (-0.9920556E-05)
 number of electron       2.0000013 magnetization 
 augmentation part        0.0411526 magnetization 

 Broyden mixing:
  rms(total) = 0.19061E-02    rms(broyden)= 0.19056E-02
  rms(prec ) = 0.23988E-02
  weight for this iteration     100.00

 eigenvalues of (default mixing * dielectric matrix)
  average eigenvalue GAMMA=   2.6331
  5.2961  3.7717  2.5291  2.2037  0.9990  0.9990

 Free energy of the ion-electron system (eV)
  ---------------------------------------------------
  alpha Z        PSCENC =         0.00121808
  Ewald energy   TEWEN  =        15.09419847
  -Hartree energ DENC   =       -31.42115786
  -exchange      EXHF   =         0.00000000
  -V(xc)+E(xc)   XCENC  =         5.30390014
  PAW double counting   =        24.65767973      -24.70661735
  entropy T*S    EENTRO =         0.01101221
  eigenvalues    EBANDS =       -20.64385767
  atomic energy  EATOM  =        24.95726533
  Solvation contrib.  Ediel  =         0.00000000
  ---------------------------------------------------
  free energy    TOTEN  =        -6.74635892 eV

  energy without entropy =       -6.75737113  energy(sigma->0) =       -6.74911197


--------------------------------------------------------------------------------------------------------




----------------------------------------- Iteration    1(  12)  ---------------------------------------


    POTLOK:  cpu time    0.79: real time    0.79
    SETDIJ:  cpu time    0.00: real time    0.00
     EDDAV:  cpu time    0.28: real time    0.28
       DOS:  cpu time    0.00: real time    0.00
    CHARGE:  cpu time    0.19: real time    0.19
    MIXING:  cpu time    0.03: real time    0.03
    --------------------------------------------
      LOOP:  cpu time    1.30: real time    1.30

 eigenvalue-minimisations  :    16
 total energy-change (2. order) :-0.1680989E-02  (-0.3891712E-04)
 number of electron       2.0000013 magnetization 
 augmentation part        0.0411734 magnetization 

 Broyden mixing:
  rms(total) = 0.57780E-03    rms(broyden)= 0.57774E-03
  rms(prec ) = 0.76627E-03
  weight for this iteration     100.00

 eigenvalues of (default mixing * dielectric matrix)
  average eigenvalue GAMMA=   2.7097
  5.6075  4.1785  1.0212  0.9690  2.5763  2.5763  2.0390

 Free energy of the ion-electron system (eV)
  ---------------------------------------------------
  alpha Z        PSCENC =         0.00121808
  Ewald energy   TEWEN  =        15.09419847
  -Hartree energ DENC   =       -31.39046720
  -exchange      EXHF   =         0.00000000
  -V(xc)+E(xc)   XCENC  =         5.29623994
  PAW double counting   =        24.54523390      -24.59388587
  entropy T*S    EENTRO =         0.01101221
  eigenvalues    EBANDS =       -20.66885476
  atomic energy  EATOM  =        24.95726533
  Solvation contrib.  Ediel  =         0.00000000
  ---------------------------------------------------
  free energy    TOTEN  =        -6.74803991 eV

  energy without entropy =       -6.75905212  energy(sigma->0) =       -6.75079296


--------------------------------------------------------------------------------------------------------




----------------------------------------- Iteration    1(  13)  ---------------------------------------


    POTLOK:  cpu time    0.80: real time    0.80
    SETDIJ:  cpu time    0.00: real time    0.00
     EDDAV:  cpu time    0.39: real time    0.39
       DOS:  cpu time    0.00: real time    0.00
    CHARGE:  cpu time    0.18: real time    0.19
    MIXING:  cpu time    0.03: real time    0.03
    --------------------------------------------
      LOOP:  cpu time    1.40: real time    1.41

 eigenvalue-minimisations  :    24
 total energy-change (2. order) :-0.2951787E-03  (-0.1727636E-05)
 number of electron       2.0000013 magnetization 
 augmentation part        0.0411669 magnetization 

 Broyden mixing:
  rms(total) = 0.26510E-03    rms(broyden)= 0.26509E-03
  rms(prec ) = 0.36401E-03
  weight for this iteration     100.00

 eigenvalues of (default mixing * dielectric matrix)
  average eigenvalue GAMMA=   2.7667
  6.9836  4.2950  3.3138  2.4891  2.1873  1.0097  1.0097  0.8452

 Free energy of the ion-electron system (eV)
  ---------------------------------------------------
  alpha Z        PSCENC =         0.00121808
  Ewald energy   TEWEN  =        15.09419847
  -Hartree energ DENC   =       -31.40155419
  -exchange      EXHF   =         0.00000000
  -V(xc)+E(xc)   XCENC  =         5.29710182
  PAW double counting   =        24.56558264      -24.61427002
  entropy T*S    EENTRO =         0.01101221
  eigenvalues    EBANDS =       -20.65888943
  atomic energy  EATOM  =        24.95726533
  Solvation contrib.  Ediel  =         0.00000000
  ---------------------------------------------------
  free energy    TOTEN  =        -6.74833509 eV

  energy without entropy =       -6.75934730  energy(sigma->0) =       -6.75108814


--------------------------------------------------------------------------------------------------------




----------------------------------------- Iteration    1(  14)  ---------------------------------------


    POTLOK:  cpu time    0.80: real time    0.80
    SETDIJ:  cpu time    0.00: real time    0.00
     EDDAV:  cpu time    0.51: real time    0.51
       DOS:  cpu time    0.00: real time    0.00
    CHARGE:  cpu time    0.18: real time    0.19
    MIXING:  cpu time    0.03: real time    0.03
    --------------------------------------------
      LOOP:  cpu time    1.53: real time    1.53

 eigenvalue-minimisations  :    32
 total energy-change (2. order) :-0.1241166E-03  (-0.9539463E-06)
 number of electron       2.0000013 magnetization 
 augmentation part        0.0411623 magnetization 

 Broyden mixing:
  rms(total) = 0.17930E-03    rms(broyden)= 0.17926E-03
  rms(prec ) = 0.23255E-03
  weight for this iteration     100.00

 eigenvalues of (default mixing * dielectric matrix)
  average eigenvalue GAMMA=   3.0845
  7.9928  5.1918  3.6171  3.3905  2.1729  2.4761  1.0161  0.9866  0.9166

 Free energy of the ion-electron system (eV)
  ---------------------------------------------------
  alpha Z        PSCENC =         0.00121808
  Ewald energy   TEWEN  =        15.09419847
  -Hartree energ DENC   =       -31.40943423
  -exchange      EXHF   =         0.00000000
  -V(xc)+E(xc)   XCENC  =         5.29774203
  PAW double counting   =        24.57480125      -24.62353815
  entropy T*S    EENTRO =         0.01101221
  eigenvalues    EBANDS =       -20.65172419
  atomic energy  EATOM  =        24.95726533
  Solvation contrib.  Ediel  =         0.00000000
  ---------------------------------------------------
  free energy    TOTEN  =        -6.74845921 eV

  energy without entropy =       -6.75947141  energy(sigma->0) =       -6.75121226


--------------------------------------------------------------------------------------------------------




----------------------------------------- Iteration    1(  15)  ---------------------------------------


    POTLOK:  cpu time    0.80: real time    0.80
    SETDIJ:  cpu time    0.00: real time    0.00
     EDDAV:  cpu time    0.49: real time    0.49
       DOS:  cpu time    0.00: real time    0.00
    CHARGE:  cpu time    0.18: real time    0.18
    MIXING:  cpu time    0.03: real time    0.03
    --------------------------------------------
      LOOP:  cpu time    1.51: real time    1.51

 eigenvalue-minimisations  :    32
 total energy-change (2. order) :-0.6231711E-04  (-0.1671259E-06)
 number of electron       2.0000013 magnetization 
 augmentation part        0.0411662 magnetization 

 Broyden mixing:
  rms(total) = 0.10959E-03    rms(broyden)= 0.10956E-03
  rms(prec ) = 0.13122E-03
  weight for this iteration     100.00

 eigenvalues of (default mixing * dielectric matrix)
  average eigenvalue GAMMA=   2.8982
  8.1786  5.1588  3.8612  3.0524  2.4948  2.1742  1.1109  0.9704  0.9704  1.0102

 Free energy of the ion-electron system (eV)
  ---------------------------------------------------
  alpha Z        PSCENC =         0.00121808
  Ewald energy   TEWEN  =        15.09419847
  -Hartree energ DENC   =       -31.40535553
  -exchange      EXHF   =         0.00000000
  -V(xc)+E(xc)   XCENC  =         5.29693157
  PAW double counting   =        24.56051503      -24.60921890
  entropy T*S    EENTRO =         0.01101221
  eigenvalues    EBANDS =       -20.65508777
  atomic energy  EATOM  =        24.95726533
  Solvation contrib.  Ediel  =         0.00000000
  ---------------------------------------------------
  free energy    TOTEN  =        -6.74852152 eV

  energy without entropy =       -6.75953373  energy(sigma->0) =       -6.75127457


--------------------------------------------------------------------------------------------------------




----------------------------------------- Iteration    1(  16)  ---------------------------------------


    POTLOK:  cpu time    0.79: real time    0.79
    SETDIJ:  cpu time    0.00: real time    0.00
     EDDAV:  cpu time    0.28: real time    0.28
       DOS:  cpu time    0.00: real time    0.00
    CHARGE:  cpu time    0.18: real time    0.19
    MIXING:  cpu time    0.04: real time    0.04
    --------------------------------------------
      LOOP:  cpu time    1.30: real time    1.30

 eigenvalue-minimisations  :    16
 total energy-change (2. order) :-0.1243980E-04  (-0.1861080E-07)
 number of electron       2.0000013 magnetization 
 augmentation part        0.0411651 magnetization 

 Broyden mixing:
  rms(total) = 0.28133E-04    rms(broyden)= 0.28131E-04
  rms(prec ) = 0.44540E-04
  weight for this iteration     100.00

 eigenvalues of (default mixing * dielectric matrix)
  average eigenvalue GAMMA=   3.1476
  8.9386  6.0349  4.5228  3.4891  3.0307  2.4960  2.1689  1.0178  1.0006  0.9619
  0.9619

 Free energy of the ion-electron system (eV)
  ---------------------------------------------------
  alpha Z        PSCENC =         0.00121808
  Ewald energy   TEWEN  =        15.09419847
  -Hartree energ DENC   =       -31.40768629
  -exchange      EXHF   =         0.00000000
  -V(xc)+E(xc)   XCENC  =         5.29718030
  PAW double counting   =        24.56596701      -24.61467982
  entropy T*S    EENTRO =         0.01101221
  eigenvalues    EBANDS =       -20.65300926
  atomic energy  EATOM  =        24.95726533
  Solvation contrib.  Ediel  =         0.00000000
  ---------------------------------------------------
  free energy    TOTEN  =        -6.74853396 eV

  energy without entropy =       -6.75954617  energy(sigma->0) =       -6.75128701


--------------------------------------------------------------------------------------------------------




----------------------------------------- Iteration    1(  17)  ---------------------------------------


    POTLOK:  cpu time    0.80: real time    0.79
    SETDIJ:  cpu time    0.00: real time    0.00
     EDDAV:  cpu time    0.39: real time    0.39
       DOS:  cpu time    0.00: real time    0.00
    CHARGE:  cpu time    0.18: real time    0.19
    MIXING:  cpu time    0.04: real time    0.04
    --------------------------------------------
      LOOP:  cpu time    1.41: real time    1.41

 eigenvalue-minimisations  :    24
 total energy-change (2. order) :-0.1548449E-04  (-0.1541436E-07)
 number of electron       2.0000013 magnetization 
 augmentation part        0.0411646 magnetization 

 Broyden mixing:
  rms(total) = 0.11349E-04    rms(broyden)= 0.11336E-04
  rms(prec ) = 0.15756E-04
  weight for this iteration     100.00

 eigenvalues of (default mixing * dielectric matrix)
  average eigenvalue GAMMA=   3.2891
  9.4158  6.6780  4.8675  3.7740  3.3554  2.1660  2.6227  2.6227  1.0202  1.0061
  0.9703  0.9703

 Free energy of the ion-electron system (eV)
  ---------------------------------------------------
  alpha Z        PSCENC =         0.00121808
  Ewald energy   TEWEN  =        15.09419847
  -Hartree energ DENC   =       -31.40830769
  -exchange      EXHF   =         0.00000000
  -V(xc)+E(xc)   XCENC  =         5.29723823
  PAW double counting   =        24.56699348      -24.61570983
  entropy T*S    EENTRO =         0.01101221
  eigenvalues    EBANDS =       -20.65245772
  atomic energy  EATOM  =        24.95726533
  Solvation contrib.  Ediel  =         0.00000000
  ---------------------------------------------------
  free energy    TOTEN  =        -6.74854945 eV

  energy without entropy =       -6.75956165  energy(sigma->0) =       -6.75130250


--------------------------------------------------------------------------------------------------------




----------------------------------------- Iteration    1(  18)  ---------------------------------------


    POTLOK:  cpu time    0.80: real time    0.80
    SETDIJ:  cpu time    0.00: real time    0.00
     EDDAV:  cpu time    0.38: real time    0.38
       DOS:  cpu time    0.00: real time    0.00
    CHARGE:  cpu time    0.18: real time    0.18
    MIXING:  cpu time    0.04: real time    0.04
    --------------------------------------------
      LOOP:  cpu time    1.42: real time    1.42

 eigenvalue-minimisations  :    24
 total energy-change (2. order) :-0.2961798E-05  (-0.7405419E-09)
 number of electron       2.0000013 magnetization 
 augmentation part        0.0411647 magnetization 

 Broyden mixing:
  rms(total) = 0.73212E-05    rms(broyden)= 0.73206E-05
  rms(prec ) = 0.95664E-05
  weight for this iteration     100.00

 eigenvalues of (default mixing * dielectric matrix)
  average eigenvalue GAMMA=   3.2110
  9.5440  6.9970  4.6675  4.3894  3.0764  3.0764  2.4575  2.1643  1.0185  1.0038
  0.9728  0.9728  1.4023

 Free energy of the ion-electron system (eV)
  ---------------------------------------------------
  alpha Z        PSCENC =         0.00121808
  Ewald energy   TEWEN  =        15.09419847
  -Hartree energ DENC   =       -31.40832124
  -exchange      EXHF   =         0.00000000
  -V(xc)+E(xc)   XCENC  =         5.29723145
  PAW double counting   =        24.56715886      -24.61587417
  entropy T*S    EENTRO =         0.01101221
  eigenvalues    EBANDS =       -20.65244139
  atomic energy  EATOM  =        24.95726533
  Solvation contrib.  Ediel  =         0.00000000
  ---------------------------------------------------
  free energy    TOTEN  =        -6.74855241 eV

  energy without entropy =       -6.75956462  energy(sigma->0) =       -6.75130546


--------------------------------------------------------------------------------------------------------




----------------------------------------- Iteration    1(  19)  ---------------------------------------


    POTLOK:  cpu time    0.81: real time    0.81
    SETDIJ:  cpu time    0.00: real time    0.00
     EDDAV:  cpu time    0.28: real time    0.28
       DOS:  cpu time    0.00: real time    0.00
    CHARGE:  cpu time    0.18: real time    0.19
    MIXING:  cpu time    0.04: real time    0.04
    --------------------------------------------
      LOOP:  cpu time    1.32: real time    1.32

 eigenvalue-minimisations  :    16
 total energy-change (2. order) :-0.1306423E-05  (-0.8085692E-09)
 number of electron       2.0000013 magnetization 
 augmentation part        0.0411648 magnetization 

 Broyden mixing:
  rms(total) = 0.26690E-05    rms(broyden)= 0.26676E-05
  rms(prec ) = 0.36977E-05
  weight for this iteration     100.00

 eigenvalues of (default mixing * dielectric matrix)
  average eigenvalue GAMMA=   3.2672
  9.7160  7.2100  5.2424  4.3325  3.7286  2.9626  2.9187  2.1623  2.4772  0.9764
  0.9764  0.9870  1.0152  1.0354

 Free energy of the ion-electron system (eV)
  ---------------------------------------------------
  alpha Z        PSCENC =         0.00121808
  Ewald energy   TEWEN  =        15.09419847
  -Hartree energ DENC   =       -31.40814902
  -exchange      EXHF   =         0.00000000
  -V(xc)+E(xc)   XCENC  =         5.29720197
  PAW double counting   =        24.56653025      -24.61524514
  entropy T*S    EENTRO =         0.01101221
  eigenvalues    EBANDS =       -20.65258588
  atomic energy  EATOM  =        24.95726533
  Solvation contrib.  Ediel  =         0.00000000
  ---------------------------------------------------
  free energy    TOTEN  =        -6.74855372 eV

  energy without entropy =       -6.75956592  energy(sigma->0) =       -6.75130677


--------------------------------------------------------------------------------------------------------




----------------------------------------- Iteration    1(  20)  ---------------------------------------


    POTLOK:  cpu time    0.79: real time    0.79
    SETDIJ:  cpu time    0.00: real time    0.00
     EDDAV:  cpu time    0.49: real time    0.49
       DOS:  cpu time    0.00: real time    0.00
    --------------------------------------------
      LOOP:  cpu time    1.29: real time    1.29

 eigenvalue-minimisations  :    32
 total energy-change (2. order) :-0.4636542E-06  (-0.3244232E-09)
 number of electron       2.0000013 magnetization 
 augmentation part        0.0411648 magnetization 

 Free energy of the ion-electron system (eV)
  ---------------------------------------------------
  alpha Z        PSCENC =         0.00121808
  Ewald energy   TEWEN  =        15.09419847
  -Hartree energ DENC   =       -31.40819528
  -exchange      EXHF   =         0.00000000
  -V(xc)+E(xc)   XCENC  =         5.29720760
  PAW double counting   =        24.56665916      -24.61537410
  entropy T*S    EENTRO =         0.01101221
  eigenvalues    EBANDS =       -20.65254566
  atomic energy  EATOM  =        24.95726533
  Solvation contrib.  Ediel  =         0.00000000
  ---------------------------------------------------
  free energy    TOTEN  =        -6.74855418 eV

  energy without entropy =       -6.75956639  energy(sigma->0) =       -6.75130723


--------------------------------------------------------------------------------------------------------




 average (electrostatic) potential at core
  the test charge radii are     0.5201
  (the norm of the test charge is              1.0000)
       1 -41.6061       2 -41.6054
 
 
 
 E-fermi : -10.1997     XC(G=0):  -0.0638     alpha+bet : -0.0069


 k-point     1 :       0.0000    0.0000    0.0000
  band No.  band energies     occupation 
      1     -10.3263      2.00000
      2      -0.0490      0.00000
      3       0.1582      0.00000
      4       0.2553      0.00000
      5       0.3219      0.00000
      6       0.3219      0.00000
      7       0.3521      0.00000
      8       0.3534      0.00000


--------------------------------------------------------------------------------------------------------


 soft charge-density along one line, spin component           1
         0         1         2         3         4         5         6         7         8         9
 total charge-density along one line
 
 pseudopotential strength for first ion, spin component:           1
 -2.344  -4.039   0.000   0.000  -0.002
 -4.039  -6.874   0.000   0.000  -0.005
  0.000   0.000  -0.341  -0.000  -0.000
  0.000   0.000  -0.000  -0.341   0.000
 -0.002  -0.005  -0.000   0.000  -0.335
 total augmentation occupancy for first ion, spin component:           1
  3.131  -0.498  -0.000   0.000   0.377
 -0.498   0.079   0.000  -0.000  -0.060
 -0.000   0.000   0.000  -0.000  -0.000
  0.000  -0.000  -0.000   0.000   0.000
  0.377  -0.060  -0.000   0.000   0.045


------------------------ aborting loop because EDIFF is reached ----------------------------------------



 DIPCOR: dipole corrections for dipol
 direction  3 min pos     1,
 dipolmoment           0.000000      0.000000     -0.000000 electrons x Angstroem
 Tr[quadrupol]      -380.499547

 energy correction for charged system         0.000000 eV
 dipol+quadrupol energy correction            0.000000 eV
 added-field ion interaction          0.000000 eV  (added to PSCEN)

 
  *************** adding dipol energy to TOTEN NOW **************** 
    CHARGE:  cpu time    0.18: real time    0.18
    FORLOC:  cpu time    0.02: real time    0.02
    FORNL :  cpu time    0.09: real time    0.09
    STRESS:  cpu time    0.32: real time    0.31
    FORCOR:  cpu time    0.79: real time    0.79
    FORHAR:  cpu time    0.20: real time    0.20
    MIXING:  cpu time    0.05: real time    0.05
    OFIELD:  cpu time    0.00: real time    0.00

  Hirshfeld-DOM and Hirshfeld charges and relative Volumes:   
            ion         q(e)           q(e)           rel_vol 
   -----------------------------------------------------------
      1     H           0.014          0.000          0.796
      2     H          -0.014         -0.000          0.903

  dDsC method for vdW energy calculation
  ---------------------------------------------------------------------------------------------

  Parameters of vdW forcefield:
            C6dDsC            XDM            ALPHAts        RELVOL
            (au)              (au)            (au)                
   ---------------------------------------------------------------
   H           5.370          1.791          3.582          0.796
   H           6.760          1.987          4.065          0.903

  IVDW =   4
  VDW_RADIUS =    50.000 A
  VDW_S6 aka ATT0 =    13.960
  VDW_SR aka BTT0 =     1.320
  LVDW_ONECELL = F F F

  Number of pair interactions contributing to vdW energy:     241
  Edisp (eV):   -0.00000
    FORVDW:  cpu time    2.40: real time    2.40

  FORCE on cell =-STRESS in cart. coord.  units (eV):
  Direction    XX          YY          ZZ          XY          YZ          ZX
  --------------------------------------------------------------------------------------
  Alpha Z     0.00122     0.00122     0.00122
  Ewald      17.82014    -1.36297    -1.36297    -0.00000    -0.00000    -0.00000
  Hartree    11.96014     9.72403     9.72403    -0.00000    -0.00000    -0.00000
  E(xc)      -5.75032    -5.97084    -5.97084    -0.00000     0.00000     0.00000
  Local     -31.78514   -18.23680   -18.23680    -0.00000     0.00000    -0.00000
  n-local    -6.33628    -5.39079    -5.39079    -0.00000     0.00000     0.00000
  augment     0.20087     0.26985     0.26985     0.00000     0.00000     0.00000
  Kinetic    13.73602    20.84666    20.84666     0.00000    -0.00000    -0.00000
  Fock        0.00000     0.00000     0.00000     0.00000     0.00000     0.00000
  vdW        -0.00000    -0.00000    -0.00000     0.00000    -0.00000    -0.00000
  -------------------------------------------------------------------------------------
  Total      -0.15334    -0.11964    -0.11964     0.00000     0.00000     0.00000
  in kB      -0.03071    -0.02396    -0.02396     0.00000     0.00000     0.00000
  external pressure =       -0.03 kB  Pullay stress =        0.00 kB


 VOLUME and BASIS-vectors are now :
 -----------------------------------------------------------------------------
  energy-cutoff  :      400.00
  volume of cell :     8000.00
      direct lattice vectors                 reciprocal lattice vectors
    20.000000000  0.000000000  0.000000000     0.050000000  0.000000000  0.000000000
     0.000000000 20.000000000  0.000000000     0.000000000  0.050000000  0.000000000
     0.000000000  0.000000000 20.000000000     0.000000000  0.000000000  0.050000000

  length of vectors
    20.000000000 20.000000000 20.000000000     0.050000000  0.050000000  0.050000000


 FORCES acting on ions
    electron-ion (+dipol)            ewald-force                    non-local-force                 convergence-correction
 -----------------------------------------------------------------------------------------------
   0.205E+02 0.411E-13 -.496E-07   -.255E+02 -.205E-18 0.136E-18   0.505E+01 0.505E-28 0.189E-27   -.224E-05 -.140E-14 -.930E-15
   -.205E+02 0.476E-13 0.752E-07   0.255E+02 -.194E-18 0.624E-19   -.505E+01 0.000E+00 -.202E-27   0.224E-05 -.148E-14 -.104E-14
 -----------------------------------------------------------------------------------------------
   -.341E-05 0.887E-13 0.256E-07   0.000E+00 -.399E-18 0.198E-18   0.178E-14 0.505E-28 -.126E-28   0.699E-10 -.288E-14 -.197E-14
 
 
 POSITION                                       TOTAL-FORCE (eV/Angst)
 -----------------------------------------------------------------------------------
     10.12457     10.00000     10.00000        -0.001420     -0.000000      0.000000
     10.87543     10.00000     10.00000         0.001420      0.000000     -0.000000
 -----------------------------------------------------------------------------------
    total drift:                               -0.000003      0.000000      0.000000


--------------------------------------------------------------------------------------------------------



  FREE ENERGIE OF THE ION-ELECTRON SYSTEM (eV)
  ---------------------------------------------------
  free  energy   TOTEN  =        -6.74855473 eV

  energy  without entropy=       -6.75956694  energy(sigma->0) =       -6.75130779
 


--------------------------------------------------------------------------------------------------------


    POTLOK:  cpu time    0.85: real time    0.85


--------------------------------------------------------------------------------------------------------


 stress matrix after NEB project (eV)
     -0.15334      0.00000      0.00000
      0.00000     -0.11964      0.00000
      0.00000      0.00000     -0.11964
  FORCES: max atom, RMS     0.001420    0.001420
  FORCE total and by dimension    0.002009    0.001420
  Stress total and by dimension    0.228342    0.153342
 Finite differences:
   Step               POTIM =   2.000000000000000E-002
   Degrees of freedom DOF   =            6
  LATTYP: Found a simple cubic cell.
 ALAT       =    20.0000000000
  
  Lattice vectors:
  
 A1 = (  20.0000000000,   0.0000000000,   0.0000000000)
 A2 = (   0.0000000000,  20.0000000000,   0.0000000000)
 A3 = (   0.0000000000,   0.0000000000,  20.0000000000)


Analysis of symmetry for initial positions (statically):
=====================================================================
 Subroutine PRICEL returns:
 Original cell was already a primitive cell.
 

 Routine SETGRP: Setting up the symmetry group for a 
 simple cubic supercell.


 Subroutine GETGRP returns: Found 16 space group operations
 (whereof  8 operations were pure point group operations)
 out of a pool of 48 trial point group operations.


The static configuration has the point symmetry C_4v.
 The point group associated with its full space group is D_4h.


Analysis of symmetry for dynamics (positions and initial velocities):
=====================================================================
 Subroutine PRICEL returns:
 Original cell was already a primitive cell.
 

 Routine SETGRP: Setting up the symmetry group for a 
 simple cubic supercell.


 Subroutine GETGRP returns: Found 16 space group operations
 (whereof  8 operations were pure point group operations)
 out of a pool of 48 trial point group operations.


The dynamic configuration has the point symmetry C_4v.
 The point group associated with its full space group is D_4h.
 
 KPOINTS:  Automatic mesh                         

Automatic generation of k-mesh.
Space group operators:
 irot       det(A)        alpha          n_x          n_y          n_z        tau_x        tau_y        tau_z
    1     1.000000     0.000000     1.000000     0.000000     0.000000     0.000000     0.000000     0.000000
    2    -1.000000   180.000000     0.000000     0.707107     0.707107     0.000000     0.000000     0.000000
    3    -1.000000   180.000000     0.000000     0.000000     1.000000     0.000000     0.000000     0.000000
    4     1.000000    90.000000    -1.000000     0.000000     0.000000     0.000000     0.000000     0.000000
    5     1.000000   180.000000     1.000000     0.000000     0.000000     0.000000     0.000000     0.000000
    6     1.000000    90.000000     1.000000     0.000000     0.000000     0.000000     0.000000     0.000000
    7    -1.000000   180.000000     0.000000     1.000000     0.000000     0.000000     0.000000     0.000000
    8    -1.000000   180.000000     0.000000    -0.707107     0.707107     0.000000     0.000000     0.000000
    9    -1.000000     0.000000     1.000000     0.000000     0.000000     0.051000     0.000000     0.000000
   10     1.000000   180.000000     0.000000     0.707107     0.707107     0.051000     0.000000     0.000000
   11     1.000000   180.000000     0.000000     0.000000     1.000000     0.051000     0.000000     0.000000
   12    -1.000000    90.000000    -1.000000     0.000000     0.000000     0.051000     0.000000     0.000000
   13    -1.000000   180.000000     1.000000     0.000000     0.000000     0.051000     0.000000     0.000000
   14    -1.000000    90.000000     1.000000     0.000000     0.000000     0.051000     0.000000     0.000000
   15     1.000000   180.000000     0.000000     1.000000     0.000000     0.051000     0.000000     0.000000
   16     1.000000   180.000000     0.000000    -0.707107     0.707107     0.051000     0.000000     0.000000
 
 Subroutine IBZKPT returns following result:
 ===========================================
 
 Found      1 irreducible k-points:
 
 Following reciprocal coordinates:
            Coordinates               Weight
  0.000000  0.000000  0.000000      1.000000
 
 Following cartesian coordinates:
            Coordinates               Weight
  0.000000  0.000000  0.000000      1.000000
 
    WAVPRE:  cpu time    0.07: real time    0.07
 FEWALD executed in parallel
    FEWALD:  cpu time    0.00: real time    0.00
    ORTHCH:  cpu time    0.03: real time    0.03
     LOOP+:  cpu time   28.72: real time   28.75


----------------------------------------- Iteration    2(   1)  ---------------------------------------


    POTLOK:  cpu time    0.84: real time    0.84
    SETDIJ:  cpu time    0.00: real time    0.00
     EDDAV:  cpu time    0.29: real time    0.29
       DOS:  cpu time    0.00: real time    0.00
    CHARGE:  cpu time    0.19: real time    0.19
    MIXING:  cpu time    0.02: real time    0.02
    --------------------------------------------
      LOOP:  cpu time    1.35: real time    1.35

 eigenvalue-minimisations  :    16
 total energy-change (2. order) : 0.6384519E-02  (-0.1725126E-01)
 number of electron       2.0000008 magnetization 
 augmentation part        0.0424035 magnetization 

 Broyden mixing:
  rms(total) = 0.18958E-01    rms(broyden)= 0.18932E-01
  rms(prec ) = 0.19962E-01
  weight for this iteration     100.00

 Free energy of the ion-electron system (eV)
  ---------------------------------------------------
  alpha Z        PSCENC =         0.00121808
  Ewald energy   TEWEN  =        15.61888471
  -Hartree energ DENC   =       -31.57605411
  -exchange      EXHF   =         0.00000000
  -V(xc)+E(xc)   XCENC  =         5.31796658
  PAW double counting   =        24.56669026      -24.61540541
  entropy T*S    EENTRO =         0.01101221
  eigenvalues    EBANDS =       -21.02374685
  atomic energy  EATOM  =        24.95726533
  Solvation contrib.  Ediel  =         0.00000000
  ---------------------------------------------------
  free energy    TOTEN  =        -6.74216920 eV

  energy without entropy =       -6.75318140  energy(sigma->0) =       -6.74492225


--------------------------------------------------------------------------------------------------------




----------------------------------------- Iteration    2(   2)  ---------------------------------------


    POTLOK:  cpu time    0.77: real time    0.77
    SETDIJ:  cpu time    0.00: real time    0.00
     EDDAV:  cpu time    0.39: real time    0.39
       DOS:  cpu time    0.00: real time    0.00
    CHARGE:  cpu time    0.19: real time    0.19
    MIXING:  cpu time    0.02: real time    0.02
    --------------------------------------------
      LOOP:  cpu time    1.38: real time    1.38

 eigenvalue-minimisations  :    24
 total energy-change (2. order) : 0.5647847E-03  (-0.1053681E-03)
 number of electron       2.0000008 magnetization 
 augmentation part        0.0423605 magnetization 

 Broyden mixing:
  rms(total) = 0.10709E-01    rms(broyden)= 0.10707E-01
  rms(prec ) = 0.11284E-01
  weight for this iteration     100.00

 eigenvalues of (default mixing * dielectric matrix)
  average eigenvalue GAMMA=   2.2778
  2.2778

 Free energy of the ion-electron system (eV)
  ---------------------------------------------------
  alpha Z        PSCENC =         0.00121808
  Ewald energy   TEWEN  =        15.61888471
  -Hartree energ DENC   =       -31.66585998
  -exchange      EXHF   =         0.00000000
  -V(xc)+E(xc)   XCENC  =         5.33060668
  PAW double counting   =        25.17423335      -25.22418398
  entropy T*S    EENTRO =         0.01101221
  eigenvalues    EBANDS =       -20.94478082
  atomic energy  EATOM  =        24.95726533
  Solvation contrib.  Ediel  =         0.00000000
  ---------------------------------------------------
  free energy    TOTEN  =        -6.74160441 eV

  energy without entropy =       -6.75261662  energy(sigma->0) =       -6.74435746


--------------------------------------------------------------------------------------------------------




----------------------------------------- Iteration    2(   3)  ---------------------------------------


    POTLOK:  cpu time    0.76: real time    0.76
    SETDIJ:  cpu time    0.00: real time    0.00
     EDDAV:  cpu time    0.39: real time    0.39
       DOS:  cpu time    0.00: real time    0.00
    CHARGE:  cpu time    0.19: real time    0.19
    MIXING:  cpu time    0.02: real time    0.02
    --------------------------------------------
      LOOP:  cpu time    1.37: real time    1.37

 eigenvalue-minimisations  :    24
 total energy-change (2. order) : 0.2105512E-03  (-0.8409308E-04)
 number of electron       2.0000008 magnetization 
 augmentation part        0.0422636 magnetization 

 Broyden mixing:
  rms(total) = 0.11401E-02    rms(broyden)= 0.11388E-02
  rms(prec ) = 0.12291E-02
  weight for this iteration     100.00

 eigenvalues of (default mixing * dielectric matrix)
  average eigenvalue GAMMA=   1.6970
  1.2317  2.1622

 Free energy of the ion-electron system (eV)
  ---------------------------------------------------
  alpha Z        PSCENC =         0.00121808
  Ewald energy   TEWEN  =        15.61888471
  -Hartree energ DENC   =       -31.77935554
  -exchange      EXHF   =         0.00000000
  -V(xc)+E(xc)   XCENC  =         5.34654434
  PAW double counting   =        25.96245663      -26.01401957
  entropy T*S    EENTRO =         0.01101221
  eigenvalues    EBANDS =       -20.84540004
  atomic energy  EATOM  =        24.95726533
  Solvation contrib.  Ediel  =         0.00000000
  ---------------------------------------------------
  free energy    TOTEN  =        -6.74139386 eV

  energy without entropy =       -6.75240607  energy(sigma->0) =       -6.74414691


--------------------------------------------------------------------------------------------------------




----------------------------------------- Iteration    2(   4)  ---------------------------------------


    POTLOK:  cpu time    0.76: real time    0.76
    SETDIJ:  cpu time    0.00: real time    0.00
     EDDAV:  cpu time    0.39: real time    0.39
       DOS:  cpu time    0.00: real time    0.00
    CHARGE:  cpu time    0.19: real time    0.19
    MIXING:  cpu time    0.02: real time    0.02
    --------------------------------------------
      LOOP:  cpu time    1.37: real time    1.37

 eigenvalue-minimisations  :    24
 total energy-change (2. order) :-0.4244161E-05  (-0.7251079E-06)
 number of electron       2.0000008 magnetization 
 augmentation part        0.0422709 magnetization 

 Broyden mixing:
  rms(total) = 0.58203E-03    rms(broyden)= 0.58200E-03
  rms(prec ) = 0.63890E-03
  weight for this iteration     100.00

 eigenvalues of (default mixing * dielectric matrix)
  average eigenvalue GAMMA=   1.9210
  0.9885  2.6887  2.0859

 Free energy of the ion-electron system (eV)
  ---------------------------------------------------
  alpha Z        PSCENC =         0.00121808
  Ewald energy   TEWEN  =        15.61888471
  -Hartree energ DENC   =       -31.77298897
  -exchange      EXHF   =         0.00000000
  -V(xc)+E(xc)   XCENC  =         5.34553299
  PAW double counting   =        25.95029925      -26.00179665
  entropy T*S    EENTRO =         0.01101221
  eigenvalues    EBANDS =       -20.85082505
  atomic energy  EATOM  =        24.95726533
  Solvation contrib.  Ediel  =         0.00000000
  ---------------------------------------------------
  free energy    TOTEN  =        -6.74139810 eV

  energy without entropy =       -6.75241031  energy(sigma->0) =       -6.74415116


--------------------------------------------------------------------------------------------------------




----------------------------------------- Iteration    2(   5)  ---------------------------------------


    POTLOK:  cpu time    0.77: real time    0.77
    SETDIJ:  cpu time    0.00: real time    0.00
     EDDAV:  cpu time    0.39: real time    0.39
       DOS:  cpu time    0.00: real time    0.00
    CHARGE:  cpu time    0.19: real time    0.19
    MIXING:  cpu time    0.02: real time    0.02
    --------------------------------------------
      LOOP:  cpu time    1.38: real time    1.38

 eigenvalue-minimisations  :    24
 total energy-change (2. order) :-0.4545261E-05  (-0.6751850E-06)
 number of electron       2.0000008 magnetization 
 augmentation part        0.0422703 magnetization 

 Broyden mixing:
  rms(total) = 0.73205E-04    rms(broyden)= 0.73187E-04
  rms(prec ) = 0.11111E-03
  weight for this iteration     100.00

 eigenvalues of (default mixing * dielectric matrix)
  average eigenvalue GAMMA=   2.0949
  1.0008  2.9437  2.5864  1.8488

 Free energy of the ion-electron system (eV)
  ---------------------------------------------------
  alpha Z        PSCENC =         0.00121808
  Ewald energy   TEWEN  =        15.61888471
  -Hartree energ DENC   =       -31.77460933
  -exchange      EXHF   =         0.00000000
  -V(xc)+E(xc)   XCENC  =         5.34560453
  PAW double counting   =        25.98682642      -26.03835894
  entropy T*S    EENTRO =         0.01101221
  eigenvalues    EBANDS =       -20.84924566
  atomic energy  EATOM  =        24.95726533
  Solvation contrib.  Ediel  =         0.00000000
  ---------------------------------------------------
  free energy    TOTEN  =        -6.74140265 eV

  energy without entropy =       -6.75241486  energy(sigma->0) =       -6.74415570


--------------------------------------------------------------------------------------------------------




----------------------------------------- Iteration    2(   6)  ---------------------------------------


    POTLOK:  cpu time    0.78: real time    0.78
    SETDIJ:  cpu time    0.00: real time    0.00
     EDDAV:  cpu time    0.39: real time    0.39
       DOS:  cpu time    0.00: real time    0.00
    CHARGE:  cpu time    0.19: real time    0.19
    MIXING:  cpu time    0.02: real time    0.02
    --------------------------------------------
      LOOP:  cpu time    1.39: real time    1.39

 eigenvalue-minimisations  :    24
 total energy-change (2. order) :-0.5283566E-05  (-0.4182141E-07)
 number of electron       2.0000008 magnetization 
 augmentation part        0.0422707 magnetization 

 Broyden mixing:
  rms(total) = 0.64346E-04    rms(broyden)= 0.64344E-04
  rms(prec ) = 0.78889E-04
  weight for this iteration     100.00

 eigenvalues of (default mixing * dielectric matrix)
  average eigenvalue GAMMA=   2.0862
  3.5501  2.6464  2.1447  1.0076  1.0823

 Free energy of the ion-electron system (eV)
  ---------------------------------------------------
  alpha Z        PSCENC =         0.00121808
  Ewald energy   TEWEN  =        15.61888471
  -Hartree energ DENC   =       -31.77535168
  -exchange      EXHF   =         0.00000000
  -V(xc)+E(xc)   XCENC  =         5.34561446
  PAW double counting   =        25.97885964      -26.03037567
  entropy T*S    EENTRO =         0.01101221
  eigenvalues    EBANDS =       -20.84853501
  atomic energy  EATOM  =        24.95726533
  Solvation contrib.  Ediel  =         0.00000000
  ---------------------------------------------------
  free energy    TOTEN  =        -6.74140793 eV

  energy without entropy =       -6.75242014  energy(sigma->0) =       -6.74416099


--------------------------------------------------------------------------------------------------------




----------------------------------------- Iteration    2(   7)  ---------------------------------------


    POTLOK:  cpu time    0.78: real time    0.78
    SETDIJ:  cpu time    0.00: real time    0.00
     EDDAV:  cpu time    0.38: real time    0.38
       DOS:  cpu time    0.00: real time    0.00
    CHARGE:  cpu time    0.20: real time    0.19
    MIXING:  cpu time    0.02: real time    0.03
    --------------------------------------------
[...]
      LOOP:  cpu time    1.96: real time    1.97

 eigenvalue-minimisations  :    24
 total energy-change (2. order) :-0.4018379E-05  (-0.2129288E-07)
 number of electron       2.0000009 magnetization 
 augmentation part        0.0411503 magnetization 

 Broyden mixing:
  rms(total) = 0.99265E-05    rms(broyden)= 0.99253E-05
  rms(prec ) = 0.13902E-04
  weight for this iteration     100.00

 eigenvalues of (default mixing * dielectric matrix)
  average eigenvalue GAMMA=   2.7428
  5.9455  0.9992  1.0046  3.5841  2.8230  2.5800  2.2629

 Free energy of the ion-electron system (eV)
  ---------------------------------------------------
  alpha Z        PSCENC =         0.00121808
  Ewald energy   TEWEN  =        15.08740046
  -Hartree energ DENC   =       -31.40323969
  -exchange      EXHF   =         0.00000000
  -V(xc)+E(xc)   XCENC  =         5.29655422
  PAW double counting   =        24.54807672      -24.59675511
  entropy T*S    EENTRO =         0.01101221
  eigenvalues    EBANDS =       -20.65007430
  atomic energy  EATOM  =        24.95726533
  Solvation contrib.  Ediel  =         0.00000000
  ---------------------------------------------------
  free energy    TOTEN  =        -6.74854209 eV

  energy without entropy =       -6.75955429  energy(sigma->0) =       -6.75129514


--------------------------------------------------------------------------------------------------------




----------------------------------------- Iteration   13(   9)  ---------------------------------------


    POTLOK:  cpu time    1.14: real time    1.14
    SETDIJ:  cpu time    0.01: real time    0.01
     EDDAV:  cpu time    0.73: real time    0.73
       DOS:  cpu time    0.00: real time    0.00
    CHARGE:  cpu time    0.23: real time    0.23
    MIXING:  cpu time    0.05: real time    0.05
    --------------------------------------------
      LOOP:  cpu time    2.16: real time    2.17

 eigenvalue-minimisations  :    32
 total energy-change (2. order) :-0.1362443E-05  (-0.3165507E-08)
 number of electron       2.0000009 magnetization 
 augmentation part        0.0411502 magnetization 

 Broyden mixing:
  rms(total) = 0.35802E-05    rms(broyden)= 0.35799E-05
  rms(prec ) = 0.54098E-05
  weight for this iteration     100.00

 eigenvalues of (default mixing * dielectric matrix)
  average eigenvalue GAMMA=   2.8143
  6.5241  3.9037  0.9979  1.0079  2.9537  2.6044  2.4284  2.0944

 Free energy of the ion-electron system (eV)
  ---------------------------------------------------
  alpha Z        PSCENC =         0.00121808
  Ewald energy   TEWEN  =        15.08740046
  -Hartree energ DENC   =       -31.40336590
  -exchange      EXHF   =         0.00000000
  -V(xc)+E(xc)   XCENC  =         5.29657166
  PAW double counting   =        24.54851836      -24.59719807
  entropy T*S    EENTRO =         0.01101221
  eigenvalues    EBANDS =       -20.64996559
  atomic energy  EATOM  =        24.95726533
  Solvation contrib.  Ediel  =         0.00000000
  ---------------------------------------------------
  free energy    TOTEN  =        -6.74854345 eV

  energy without entropy =       -6.75955566  energy(sigma->0) =       -6.75129650


--------------------------------------------------------------------------------------------------------




----------------------------------------- Iteration   13(  10)  ---------------------------------------


    POTLOK:  cpu time    1.17: real time    1.17
    SETDIJ:  cpu time    0.00: real time    0.00
     EDDAV:  cpu time    0.40: real time    0.40
       DOS:  cpu time    0.00: real time    0.00
    --------------------------------------------
      LOOP:  cpu time    1.57: real time    1.57

 eigenvalue-minimisations  :    16
 total energy-change (2. order) :-0.3109195E-06  (-0.8325785E-10)
 number of electron       2.0000009 magnetization 
 augmentation part        0.0411502 magnetization 

 Free energy of the ion-electron system (eV)
  ---------------------------------------------------
  alpha Z        PSCENC =         0.00121808
  Ewald energy   TEWEN  =        15.08740046
  -Hartree energ DENC   =       -31.40334706
  -exchange      EXHF   =         0.00000000
  -V(xc)+E(xc)   XCENC  =         5.29656869
  PAW double counting   =        24.54845346      -24.59713298
  entropy T*S    EENTRO =         0.01101221
  eigenvalues    EBANDS =       -20.64998196
  atomic energy  EATOM  =        24.95726533
  Solvation contrib.  Ediel  =         0.00000000
  ---------------------------------------------------
  free energy    TOTEN  =        -6.74854376 eV

  energy without entropy =       -6.75955597  energy(sigma->0) =       -6.75129681


--------------------------------------------------------------------------------------------------------




 average (electrostatic) potential at core
  the test charge radii are     0.5201
  (the norm of the test charge is              1.0000)
       1 -41.6044       2 -41.6035
 
 
 
 E-fermi : -10.1984     XC(G=0):  -0.0675     alpha+bet : -0.0069


 k-point     1 :       0.0000    0.0000    0.0000
  band No.  band energies     occupation 
      1     -10.3250      2.00000
      2      -0.0531      0.00000
      3       0.1535      0.00000
      4       0.2552      0.00000
      5       0.3139      0.00000
      6       0.3158      0.00000
      7       0.3529      0.00000
      8       0.3539      0.00000


--------------------------------------------------------------------------------------------------------


 soft charge-density along one line, spin component           1
         0         1         2         3         4         5         6         7         8         9
 total charge-density along one line
 
 pseudopotential strength for first ion, spin component:           1
 -2.344  -4.039   0.000   0.000  -0.002
 -4.039  -6.874   0.000   0.000  -0.005
  0.000   0.000  -0.341   0.000   0.000
  0.000   0.000   0.000  -0.341  -0.000
 -0.002  -0.005   0.000  -0.000  -0.335
 total augmentation occupancy for first ion, spin component:           1
  3.130  -0.498   0.000  -0.010   0.376
 -0.498   0.079   0.000   0.002  -0.060
  0.000   0.000   0.000   0.000   0.000
 -0.010   0.002   0.000   0.000  -0.001
  0.376  -0.060   0.000  -0.001   0.045


------------------------ aborting loop because EDIFF is reached ----------------------------------------



 DIPCOR: dipole corrections for dipol
 direction  3 min pos    59,
 dipolmoment           0.000000      0.000000      0.000039 electrons x Angstroem
 Tr[quadrupol]      -380.499969

 energy correction for charged system         0.000000 eV
 dipol+quadrupol energy correction            0.000000 eV
 added-field ion interaction          0.000000 eV  (added to PSCEN)

 
  *************** adding dipol energy to TOTEN NOW **************** 
    CHARGE:  cpu time    0.24: real time    0.24
    FORLOC:  cpu time    0.04: real time    0.04
    FORNL :  cpu time    0.11: real time    0.11
    STRESS:  cpu time    0.36: real time    0.37
    FORCOR:  cpu time    1.13: real time    1.13
    FORHAR:  cpu time    0.32: real time    0.32
    MIXING:  cpu time    0.04: real time    0.05
    OFIELD:  cpu time    0.00: real time    0.00

  Hirshfeld-DOM and Hirshfeld charges and relative Volumes:   
            ion         q(e)           q(e)           rel_vol 
   -----------------------------------------------------------
      1     H           0.013          0.000          0.838
      2     H          -0.013         -0.000          0.860

  dDsC method for vdW energy calculation
  ---------------------------------------------------------------------------------------------

  Parameters of vdW forcefield:
            C6dDsC            XDM            ALPHAts        RELVOL
            (au)              (au)            (au)                
   ---------------------------------------------------------------
   H           5.861          1.856          3.773          0.838
   H           6.226          1.923          3.868          0.860

  Number of pair interactions contributing to vdW energy:     241
  Edisp (eV):   -0.00000
    FORVDW:  cpu time    1.88: real time    1.88

  FORCE on cell =-STRESS in cart. coord.  units (eV):
  Direction    XX          YY          ZZ          XY          YZ          ZX
  --------------------------------------------------------------------------------------
  Alpha Z     0.00122     0.00122     0.00122
  Ewald      17.79975    -1.36297    -1.34938    -0.00000     0.00000    -0.51011
  Hartree    11.95743     9.72216     9.72374     0.00000    -0.00000    -0.05936
  E(xc)      -5.74972    -5.97012    -5.96996     0.00000     0.00000    -0.00587
  Local     -31.77333   -18.23348   -18.24310    -0.00000    -0.00000     0.36014
  n-local    -6.33309    -5.38915    -5.38984     0.00000    -0.00000     0.02509
  augment     0.20090     0.26973     0.26985     0.00000     0.00000     0.00189
  Kinetic    13.73674    20.84301    20.83796    -0.00000    -0.00000     0.18925
  Fock        0.00000     0.00000     0.00000     0.00000     0.00000     0.00000
  vdW        -0.00000    -0.00000    -0.00000     0.00000     0.00000    -0.00000
  -------------------------------------------------------------------------------------
  Total      -0.16012    -0.11960    -0.11951     0.00000     0.00000     0.00104
  in kB      -0.03207    -0.02395    -0.02393     0.00000     0.00000     0.00021
  external pressure =       -0.03 kB  Pullay stress =        0.00 kB


 VOLUME and BASIS-vectors are now :
 -----------------------------------------------------------------------------
  energy-cutoff  :      400.00
  volume of cell :     8000.00
      direct lattice vectors                 reciprocal lattice vectors
    20.000000000  0.000000000  0.000000000     0.050000000  0.000000000  0.000000000
     0.000000000 20.000000000  0.000000000     0.000000000  0.050000000  0.000000000
     0.000000000  0.000000000 20.000000000     0.000000000  0.000000000  0.050000000

  length of vectors
    20.000000000 20.000000000 20.000000000     0.050000000  0.050000000  0.050000000


 FORCES acting on ions
    electron-ion (+dipol)            ewald-force                    non-local-force                 convergence-correction
 -----------------------------------------------------------------------------------------------
   0.205E+02 0.411E-13 -.545E+00   -.255E+02 -.215E-19 0.679E+00   0.504E+01 0.000E+00 -.134E+00   0.434E-05 -.131E-14 -.278E-05
   -.205E+02 0.128E-13 0.545E+00   0.255E+02 -.378E-18 -.679E+00   -.504E+01 0.000E+00 0.134E+00   -.436E-05 -.134E-14 -.147E-05
 -----------------------------------------------------------------------------------------------
   -.620E-05 0.539E-13 -.228E-04   0.000E+00 -.399E-18 0.000E+00   0.000E+00 0.000E+00 0.000E+00   -.143E-07 -.265E-14 -.425E-05
 
 
 POSITION                                       TOTAL-FORCE (eV/Angst)
 -----------------------------------------------------------------------------------
     10.12457     10.00000     10.00000         0.007673      0.000000     -0.000487
     10.87543     10.00000      9.98000        -0.007673      0.000000      0.000487
 -----------------------------------------------------------------------------------
    total drift:                               -0.000006      0.000000     -0.000027


--------------------------------------------------------------------------------------------------------



  FREE ENERGIE OF THE ION-ELECTRON SYSTEM (eV)
  ---------------------------------------------------
  free  energy   TOTEN  =        -6.74854431 eV

  energy  without entropy=       -6.75955652  energy(sigma->0) =       -6.75129737
 
 d Force =-0.1056781E-07[-0.195E-04, 0.194E-04]  d Energy = 0.1638228E-02-0.164E-02
 d Force =-0.1734723E-17[ 0.272E-01,-0.272E-01]  d Ewald  = 0.1776357E-14-0.178E-14


--------------------------------------------------------------------------------------------------------


    POTLOK:  cpu time    1.20: real time    1.20


--------------------------------------------------------------------------------------------------------


 stress matrix after NEB project (eV)
     -0.16012      0.00000      0.00104
      0.00000     -0.11960      0.00000
      0.00104      0.00000     -0.11951
  FORCES: max atom, RMS     0.007689    0.007689
  FORCE total and by dimension    0.010874    0.007673
  Stress total and by dimension    0.232866    0.160116
 Finite differences progress:
  Degree of freedom:   6/  6
  Displacement:        2/  2
  Total:              12/ 12
 
 SECOND DERIVATIVES (NOT SYMMETRIZED)
 ------------------------------------
               1X          1Y          1Z          2X          2Y          2Z 
  1X   -34.123122   -0.000000   -0.000000   34.123122    0.000000    0.000000
  1Y     0.000012   -0.025894    0.000000   -0.000012    0.025894    0.000000
  1Z    -0.000054    0.000000   -0.025902    0.000054    0.000000    0.025902
  2X    34.100582    0.000000   -0.000000  -34.100582   -0.000000    0.000000
  2Y    -0.000983    0.024285    0.000000    0.000983   -0.024285    0.000000
  2Z    -0.000050    0.000000    0.024319    0.000050    0.000000   -0.024319
 
 
 Eigenvectors and eigenvalues of the dynamical matrix
 ----------------------------------------------------
 
 
   1 f  =  129.127389 THz   811.331313 2PiTHz 4307.225937 cm-1   534.028147 meV
             X         Y         Z           dx          dy          dz
     10.124570 10.000000 10.000000     0.707224   -0.000000    0.000001  
     10.875430 10.000000 10.000000    -0.706990    0.000010    0.000001  
 
   2 f  =    3.503860 THz    22.015401 2PiTHz  116.876183 cm-1    14.490805 meV
             X         Y         Z           dx          dy          dz
     10.124570 10.000000 10.000000     0.000000   -0.000000   -0.718165  
     10.875430 10.000000 10.000000    -0.000000    0.000000    0.695873  
 
   3 f  =    3.502429 THz    22.006410 2PiTHz  116.828448 cm-1    14.484887 meV
             X         Y         Z           dx          dy          dz
     10.124570 10.000000 10.000000     0.000006    0.718351   -0.000000  
     10.875430 10.000000 10.000000    -0.000004   -0.695681    0.000000  
 
   4 f/i=    0.021328 THz     0.134006 2PiTHz    0.711418 cm-1     0.088205 meV
             X         Y         Z           dx          dy          dz
     10.124570 10.000000 10.000000    -0.706970    0.005138    0.000562  
     10.875430 10.000000 10.000000    -0.707204    0.005303    0.000580  
 
   5 f/i=    0.055236 THz     0.347056 2PiTHz    1.842465 cm-1     0.228437 meV
             X         Y         Z           dx          dy          dz
     10.124570 10.000000 10.000000     0.000565   -0.000729    0.695873  
     10.875430 10.000000 10.000000     0.000566   -0.000753    0.718164  
 
   6 f/i=    0.056160 THz     0.352863 2PiTHz    1.873291 cm-1     0.232259 meV
             X         Y         Z           dx          dy          dz
     10.124570 10.000000 10.000000    -0.005216   -0.695662   -0.000725  
     10.875430 10.000000 10.000000    -0.005228   -0.718331   -0.000748  
 
 Finite differences POTIM=  2.000000000000000E-002
  LATTYP: Found a simple cubic cell.
 ALAT       =    20.0000000000
  
  Lattice vectors:
  
 A1 = (  20.0000000000,   0.0000000000,   0.0000000000)
 A2 = (   0.0000000000,  20.0000000000,   0.0000000000)
 A3 = (   0.0000000000,   0.0000000000,  20.0000000000)


Analysis of symmetry for initial positions (statically):
=====================================================================
 Subroutine PRICEL returns:
 Original cell was already a primitive cell.
 

 Routine SETGRP: Setting up the symmetry group for a 
 simple cubic supercell.


 Subroutine GETGRP returns: Found 16 space group operations
 (whereof  8 operations were pure point group operations)
 out of a pool of 48 trial point group operations.


The static configuration has the point symmetry C_4v.
 The point group associated with its full space group is D_4h.


Analysis of symmetry for dynamics (positions and initial velocities):
=====================================================================
 Subroutine PRICEL returns:
 Original cell was already a primitive cell.
 

 Routine SETGRP: Setting up the symmetry group for a 
 simple cubic supercell.


 Subroutine GETGRP returns: Found 16 space group operations
 (whereof  8 operations were pure point group operations)
 out of a pool of 48 trial point group operations.


The dynamic configuration has the point symmetry C_4v.
 The point group associated with its full space group is D_4h.
 
 KPOINTS:  Automatic mesh                         

Automatic generation of k-mesh.
Space group operators:
 irot       det(A)        alpha          n_x          n_y          n_z        tau_x        tau_y        tau_z
    1     1.000000     0.000000     1.000000     0.000000     0.000000     0.000000     0.000000     0.000000
    2    -1.000000   180.000000     0.000000     0.707107     0.707107     0.000000     0.000000     0.000000
    3    -1.000000   180.000000     0.000000     0.000000     1.000000     0.000000     0.000000     0.000000
    4     1.000000    90.000000    -1.000000     0.000000     0.000000     0.000000     0.000000     0.000000
    5     1.000000   180.000000     1.000000     0.000000     0.000000     0.000000     0.000000     0.000000
    6     1.000000    90.000000     1.000000     0.000000     0.000000     0.000000     0.000000     0.000000
    7    -1.000000   180.000000     0.000000     1.000000     0.000000     0.000000     0.000000     0.000000
    8    -1.000000   180.000000     0.000000    -0.707107     0.707107     0.000000     0.000000     0.000000
    9    -1.000000     0.000000     1.000000     0.000000     0.000000     0.050000     0.000000     0.000000
   10     1.000000   180.000000     0.000000     0.707107     0.707107     0.050000     0.000000     0.000000
   11     1.000000   180.000000     0.000000     0.000000     1.000000     0.050000     0.000000     0.000000
   12    -1.000000    90.000000    -1.000000     0.000000     0.000000     0.050000     0.000000     0.000000
   13    -1.000000   180.000000     1.000000     0.000000     0.000000     0.050000     0.000000     0.000000
   14    -1.000000    90.000000     1.000000     0.000000     0.000000     0.050000     0.000000     0.000000
   15     1.000000   180.000000     0.000000     1.000000     0.000000     0.050000     0.000000     0.000000
   16     1.000000   180.000000     0.000000    -0.707107     0.707107     0.050000     0.000000     0.000000
 
 Subroutine IBZKPT returns following result:
 ===========================================
 
 Found      1 irreducible k-points:
 
 Following reciprocal coordinates:
            Coordinates               Weight
  0.000000  0.000000  0.000000      1.000000
 
 Following cartesian coordinates:
            Coordinates               Weight
  0.000000  0.000000  0.000000      1.000000
 
     LOOP+:  cpu time   25.58: real time   25.63
    4ORBIT:  cpu time    0.00: real time    0.00

 total amount of memory used by VASP on root node   152900. kBytes
========================================================================

   base      :      30000. kBytes
   nonlr-proj:        119. kBytes
   fftplans  :      36243. kBytes
   grid      :      84214. kBytes
   one-center:          2. kBytes
   wavefun   :       2322. kBytes
 
  
  
 General timing and accounting informations for this job:
 ========================================================
  
                  Total CPU time used (sec):      292.476
                            User time (sec):      291.328
                          System time (sec):        1.148
                         Elapsed time (sec):      293.563
  
                   Maximum memory used (kb):      253212.
                   Average memory used (kb):           0.
  
                          Minor page faults:       550821
                          Major page faults:            1
                 Voluntary context switches:          401
