 vasp.5.3.5 31Mar14 (build Jan 31 2018 16:04:57) complex                        
  
 executed on             LinuxIFC date 2018.12.07  15:39:23
 running on    8 total cores
 distrk:  each k-point on    8 cores,    1 groups
 distr:  one band on NCORES_PER_BAND=   1 cores,    8 groups


--------------------------------------------------------------------------------------------------------


 INCAR:
 POTCAR:    PAW_PBE C 08Apr2002                   
 POTCAR:    PAW_PBE O 08Apr2002                   
 POTCAR:    PAW_PBE H 15Jun2001                   

 ----------------------------------------------------------------------------- 
|                                                                             |
|           W    W    AA    RRRRR   N    N  II  N    N   GGGG   !!!           |
|           W    W   A  A   R    R  NN   N  II  NN   N  G    G  !!!           |
|           W    W  A    A  R    R  N N  N  II  N N  N  G       !!!           |
|           W WW W  AAAAAA  RRRRR   N  N N  II  N  N N  G  GGG   !            |
|           WW  WW  A    A  R   R   N   NN  II  N   NN  G    G                |
|           W    W  A    A  R    R  N    N  II  N    N   GGGG   !!!           |
|                                                                             |
|      For optimal performance we recommend to set                            |
|        NCORE= 4 - approx SQRT( number of cores)                             |
|      NCORE specifies how many cores store one orbital (NPAR=cpu/NCORE).     |
|      This setting can  greatly improve the performance of VASP for DFT.     |
|      The default, NPAR=number of cores might be grossly inefficient         |
|      on modern multi-core architectures or massively parallel machines.     |
|      Do your own testing !!!!                                               |
|      Unfortunately you need to use the default for GW and RPA calculations. |
|      (for HF NCORE is supported but not extensively tested yet)             |
|                                                                             |
 ----------------------------------------------------------------------------- 

 POTCAR:    PAW_PBE C 08Apr2002                   
   VRHFIN =C: s2p2                                                              
   LEXCH  = PE                                                                  
   EATOM  =   147.1560 eV,   10.8157 Ry                                         
                                                                                
   TITEL  = PAW_PBE C 08Apr2002                                                 
   LULTRA =        F    use ultrasoft PP ?                                      
   IUNSCR =        1    unscreen: 0-lin 1-nonlin 2-no                           
   RPACOR =    1.200    partial core radius                                     
   POMASS =   12.011; ZVAL   =    4.000    mass and valenz                      
   RCORE  =    1.500    outmost cutoff radius                                   
   RWIGS  =    1.630; RWIGS  =    0.863    wigner-seitz radius (au A)           
   ENMAX  =  400.000; ENMIN  =  300.000 eV                                      
   ICORE  =        2    local potential                                         
   LCOR   =        T    correct aug charges                                     
   LPAW   =        T    paw PP                                                  
   EAUG   =  644.873                                                            
   DEXC   =    0.000                                                            
   RMAX   =    1.529    core radius for proj-oper                               
   RAUG   =    1.300    factor for augmentation sphere                          
   RDEP   =    1.501    radius for radial grids                                 
   RDEPT  =    1.300    core radius for aug-charge                              
                                                                                
   Atomic configuration                                                         
    4 entries                                                                   
     n  l   j            E        occ.                                          
     1  0  0.50      -273.3789   2.0000                                         
     2  0  0.50       -13.7508   2.0000                                         
     2  1  0.50        -5.2854   2.0000                                         
     3  2  1.50        -5.4423   0.0000                                         
   Description                                                                  
     l       E           TYP  RCUT    TYP  RCUT                                 
     0    -13.7508458     23  1.200                                             
     0     -8.2022199     23  1.200                                             
     1     -5.2854383     23  1.500                                             
     1     34.0145650     23  1.500                                             
     2     -5.4423304      7  1.500                                             
  local pseudopotential read in
  partial core-charges read in
  partial kinetic energy density read in
  atomic valenz-charges read in
  non local Contribution for L=           0  read in
    real space projection operators read in
  non local Contribution for L=           0  read in
    real space projection operators read in
  non local Contribution for L=           1  read in
    real space projection operators read in
  non local Contribution for L=           1  read in
    real space projection operators read in
    PAW grid and wavefunctions read in
 
   number of l-projection  operators is LMAX  =           4
   number of lm-projection operators is LMMAX =           8
 
 POTCAR:    PAW_PBE O 08Apr2002                   
   VRHFIN =O: s2p4                                                              
   LEXCH  = PE                                                                  
   EATOM  =   432.3788 eV,   31.7789 Ry                                         
                                                                                
   TITEL  = PAW_PBE O 08Apr2002                                                 
   LULTRA =        F    use ultrasoft PP ?                                      
   IUNSCR =        1    unscreen: 0-lin 1-nonlin 2-no                           
   RPACOR =    1.200    partial core radius                                     
   POMASS =   16.000; ZVAL   =    6.000    mass and valenz                      
   RCORE  =    1.520    outmost cutoff radius                                   
   RWIGS  =    1.550; RWIGS  =    0.820    wigner-seitz radius (au A)           
   ENMAX  =  400.000; ENMIN  =  300.000 eV                                      
   ICORE  =        2    local potential                                         
   LCOR   =        T    correct aug charges                                     
   LPAW   =        T    paw PP                                                  
   EAUG   =  605.392                                                            
   DEXC   =    0.000                                                            
   RMAX   =    1.553    core radius for proj-oper                               
   RAUG   =    1.300    factor for augmentation sphere                          
   RDEP   =    1.550    radius for radial grids                                 
   RDEPT  =    1.329    core radius for aug-charge                              
                                                                                
   Atomic configuration                                                         
    4 entries                                                                   
     n  l   j            E        occ.                                          
     1  0  0.50      -514.6923   2.0000                                         
     2  0  0.50       -23.9615   2.0000                                         
     2  1  0.50        -9.0305   4.0000                                         
     3  2  1.50        -9.5241   0.0000                                         
   Description                                                                  
     l       E           TYP  RCUT    TYP  RCUT                                 
     0    -23.9615318     23  1.200                                             
     0     -9.5240782     23  1.200                                             
     1     -9.0304911     23  1.520                                             
     1      8.1634956     23  1.520                                             
     2     -9.5240782      7  1.500                                             
  local pseudopotential read in
  partial core-charges read in
  partial kinetic energy density read in
  kinetic energy density of atom read in
  atomic valenz-charges read in
  non local Contribution for L=           0  read in
    real space projection operators read in
  non local Contribution for L=           0  read in
    real space projection operators read in
  non local Contribution for L=           1  read in
    real space projection operators read in
  non local Contribution for L=           1  read in
    real space projection operators read in
    PAW grid and wavefunctions read in
 
   number of l-projection  operators is LMAX  =           4
   number of lm-projection operators is LMMAX =           8
 
 POTCAR:    PAW_PBE H 15Jun2001                   
   VRHFIN =H: ultrasoft test                                                    
   LEXCH  = PE                                                                  
   EATOM  =    12.4884 eV,    0.9179 Ry                                         
                                                                                
   TITEL  = PAW_PBE H 15Jun2001                                                 
   LULTRA =        F    use ultrasoft PP ?                                      
   IUNSCR =        0    unscreen: 0-lin 1-nonlin 2-no                           
   RPACOR =    0.000    partial core radius                                     
   POMASS =    1.000; ZVAL   =    1.000    mass and valenz                      
   RCORE  =    1.100    outmost cutoff radius                                   
   RWIGS  =    0.700; RWIGS  =    0.370    wigner-seitz radius (au A)           
   ENMAX  =  250.000; ENMIN  =  200.000 eV                                      
   RCLOC  =    0.701    cutoff for local pot                                    
   LCOR   =        T    correct aug charges                                     
   LPAW   =        T    paw PP                                                  
   EAUG   =  400.000                                                            
   RMAX   =    1.123    core radius for proj-oper                               
   RAUG   =    1.200    factor for augmentation sphere                          
   RDEP   =    1.112    radius for radial grids                                 
   RDEPT  =    0.926    core radius for aug-charge                              
                                                                                
   Atomic configuration                                                         
    2 entries                                                                   
     n  l   j            E        occ.                                          
     1  0  0.50        -6.4927   1.0000                                         
     2  1  0.50        -3.4015   0.0000                                         
   Description                                                                  
     l       E           TYP  RCUT    TYP  RCUT                                 
     0     -6.4927494     23  1.100                                             
     0      6.8029130     23  1.100                                             
     1     -4.0817478     23  1.100                                             
  local pseudopotential read in
  atomic valenz-charges read in
  non local Contribution for L=           0  read in
    real space projection operators read in
  non local Contribution for L=           0  read in
    real space projection operators read in
  non local Contribution for L=           1  read in
    real space projection operators read in
    PAW grid and wavefunctions read in
 
   number of l-projection  operators is LMAX  =           3
   number of lm-projection operators is LMMAX =           5
 
 Optimization of the real space projectors (new method)

 maximal supplied QI-value         = 25.13
 optimisation between [QCUT,QGAM] = [ 10.05, 20.36] = [ 28.30,116.06] Ry 
 Optimized for a Real-space Cutoff    1.30 Angstroem

   l    n(q)    QCUT    max X(q) W(low)/X(q) W(high)/X(q)  e(spline) 
   0      8    10.053   115.676    0.49E-03    0.72E-03    0.18E-06
   0      8    10.053    87.132    0.49E-03    0.71E-03    0.18E-06
   1      7    10.053     4.429    0.32E-03    0.31E-03    0.18E-06
   1      7    10.053     2.733    0.23E-03    0.19E-03    0.20E-06
 Optimization of the real space projectors (new method)

 maximal supplied QI-value         = 24.76
 optimisation between [QCUT,QGAM] = [ 10.15, 20.30] = [ 28.85,115.39] Ry 
 Optimized for a Real-space Cutoff    1.38 Angstroem

   l    n(q)    QCUT    max X(q) W(low)/X(q) W(high)/X(q)  e(spline) 
   0      8    10.150    20.381    0.22E-03    0.32E-03    0.29E-06
   0      8    10.150    15.268    0.23E-03    0.35E-03    0.30E-06
   1      8    10.150     5.964    0.46E-03    0.53E-03    0.21E-06
   1      8    10.150     5.382    0.38E-03    0.45E-03    0.19E-06
 Optimization of the real space projectors (new method)

 maximal supplied QI-value         = 34.20
 optimisation between [QCUT,QGAM] = [  9.92, 20.18] = [ 27.55,114.04] Ry 
 Optimized for a Real-space Cutoff    1.26 Angstroem

   l    n(q)    QCUT    max X(q) W(low)/X(q) W(high)/X(q)  e(spline) 
   0      8     9.919    19.460    0.50E-03    0.23E-03    0.29E-06
   0      8     9.919    12.209    0.48E-03    0.23E-03    0.28E-06
   1      7     9.919     4.655    0.17E-03    0.75E-03    0.30E-06
  PAW_PBE C 08Apr2002                   :
 energy of atom  1       EATOM= -147.1560
 kinetic energy error for atom=    0.0288 (will be added to EATOM!!)
  PAW_PBE O 08Apr2002                   :
 energy of atom  2       EATOM= -432.3788
 kinetic energy error for atom=    0.1156 (will be added to EATOM!!)
  PAW_PBE H 15Jun2001                   :
 energy of atom  3       EATOM=  -12.4884
 kinetic energy error for atom=    0.0098 (will be added to EATOM!!)
 
 
 POSCAR: CH3CH2OH                                
  positions in direct lattice
  velocities in cartesian coordinates
 exchange correlation table for  LEXCH =        8
   RHO(1)=    0.500       N(1)  =     2000
   RHO(2)=  100.500       N(2)  =     4000

 VTST: version 3.1, (03/28/14)

 CHAIN: initializing optimizer
 
 OPT: Using VASP Dynamics algorithm
 CHAIN: Read ICHAIN            0
 
 POSCAR: CH3CH2OH                                
  positions in direct lattice
  velocities in cartesian coordinates
 


--------------------------------------------------------------------------------------------------------


 ion  position               nearest neighbor table
   1  0.453  0.492  0.457-   7 1.10   6 1.10   5 1.10   2 1.52
   2  0.494  0.493  0.521-   9 1.11   4 1.44   3 1.52   1 1.52
   3  0.569  0.497  0.507-  12 1.10  10 1.10  11 1.10   2 1.52
   4  0.479  0.551  0.561-   8 0.97   2 1.44
   5  0.399  0.489  0.469-   1 1.10
   6  0.466  0.448  0.427-   1 1.10
   7  0.462  0.537  0.428-   1 1.10
   8  0.431  0.552  0.569-   4 0.97
   9  0.484  0.447  0.551-   2 1.11
  10  0.585  0.453  0.478-   3 1.10
  11  0.580  0.542  0.478-   3 1.10
  12  0.597  0.499  0.554-   3 1.10
 
  LATTYP: Found a simple cubic cell.
 ALAT       =    20.0000000000
  
  Lattice vectors:
  
 A1 = (  20.0000000000,   0.0000000000,   0.0000000000)
 A2 = (   0.0000000000,  20.0000000000,   0.0000000000)
 A3 = (   0.0000000000,   0.0000000000,  20.0000000000)


Analysis of symmetry for initial positions (statically):
=====================================================================
 Subroutine PRICEL returns:
 Original cell was already a primitive cell.
 

 Routine SETGRP: Setting up the symmetry group for a 
 simple cubic supercell.


 Subroutine GETGRP returns: Found  1 space group operations
 (whereof  1 operations were pure point group operations)
 out of a pool of 48 trial point group operations.


The static configuration has the point symmetry C_1 .


Analysis of symmetry for dynamics (positions and initial velocities):
=====================================================================
 Subroutine PRICEL returns:
 Original cell was already a primitive cell.
 

 Routine SETGRP: Setting up the symmetry group for a 
 simple cubic supercell.


 Subroutine GETGRP returns: Found  1 space group operations
 (whereof  1 operations were pure point group operations)
 out of a pool of 48 trial point group operations.


The dynamic configuration has the point symmetry C_1 .
 
 
 KPOINTS:  Automatic mesh                         

Automatic generation of k-mesh.
Space group operators:
 irot       det(A)        alpha          n_x          n_y          n_z        tau_x        tau_y        tau_z
    1     1.000000     0.000000     1.000000     0.000000     0.000000     0.000000     0.000000     0.000000
 
 Subroutine IBZKPT returns following result:
 ===========================================
 
 Found      1 irreducible k-points:
 
 Following reciprocal coordinates:
            Coordinates               Weight
  0.000000  0.000000  0.000000      1.000000
 
 Following cartesian coordinates:
            Coordinates               Weight
  0.000000  0.000000  0.000000      1.000000
 
 
 Subroutine IBZKPT_HF returns following result:
 ==============================================
 
 Found      1 k-points in 1st BZ
 the following      1 k-points will be used (e.g. in the exchange kernel)
 Following reciprocal coordinates:   # in IRBZ
  0.000000  0.000000  0.000000       1 t-inv F


--------------------------------------------------------------------------------------------------------




 Dimension of arrays:
   k-points           NKPTS =      1   k-points in BZ     NKDIM =      1   number of bands    NBANDS=     24
   number of dos      NEDOS =    301   number of ions     NIONS =     12
   non local maximal  LDIM  =      4   non local SUM 2l+1 LMDIM =      8
   total plane-waves  NPLWV = 941192
   max r-space proj   IRMAX =   1346   max aug-charges    IRDMAX=   1726
   dimension x,y,z NGX =    98 NGY =   98 NGZ =   98
   dimension x,y,z NGXF=   196 NGYF=  196 NGZF=  196
   support grid    NGXF=   196 NGYF=  196 NGZF=  196
   ions per type =               3   1   8
 NGX,Y,Z   is equivalent  to a cutoff of   8.15,  8.15,  8.15 a.u.
 NGXF,Y,Z  is equivalent  to a cutoff of  16.29, 16.29, 16.29 a.u.


 I would recommend the setting:
   dimension x,y,z NGX =    98 NGY =   98 NGZ =   98
 SYSTEM =  unknown system                          
 POSCAR =  CH3CH2OH                                

 Startparameter for this run:
   NWRITE =      2    write-flag & timer
   PREC   = normal    normal or accurate (medium, high low for compatibility)
   ISTART =      0    job   : 0-new  1-cont  2-samecut
   ICHARG =      2    charge: 1-file 2-atom 10-const
   ISPIN  =      1    spin polarized calculation?
   LNONCOLLINEAR =      F non collinear calculations
   LSORBIT =      F    spin-orbit coupling
   INIWAV =      1    electr: 0-lowe 1-rand  2-diag
   LASPH  =      F    aspherical Exc in radial PAW
   METAGGA=      F    non-selfconsistent MetaGGA calc.
   LSOL =      F    Solvation

 Electronic Relaxation 1
   ENCUT  =  400.0 eV  29.40 Ry    5.42 a.u.  32.61 32.61 32.61*2*pi/ulx,y,z
   ENINI  =  400.0     initial cutoff
   ENAUG  =  644.9 eV  augmentation charge cutoff
   NELM   =     60;   NELMIN=  2; NELMDL= -5     # of ELM steps 
   EDIFF  = 0.1E-05   stopping-criterion for ELM
   LREAL  =      T    real-space projection
   NLSPLINE    = F    spline interpolate recip. space projectors
   LCOMPAT=      F    compatible to vasp.4.4
   GGA_COMPAT  = T    GGA compatible to vasp.4.4-vasp.4.6
   LMAXPAW     = -100 max onsite density
   LMAXMIX     =    2 max onsite mixed and CHGCAR
   VOSKOWN=      0    Vosko Wilk Nusair interpolation
   ROPT   =   -0.00050  -0.00050  -0.00050
 Ionic relaxation
   EDIFFG = -.1E-01   stopping-criterion for IOM
   NSW    =    100    number of steps for IOM
   NBLOCK =      1;   KBLOCK =    100    inner block; outer block 
   IBRION =      5    ionic relax: 0-MD 1-quasi-New 2-CG
   NFREE  =      2    steps in history (QN), initial steepest desc. (CG)
   ISIF   =      2    stress and relaxation
   IWAVPR =     11    prediction:  0-non 1-charg 2-wave 3-comb
   ISYM   =      2    0-nonsym 1-usesym 2-fastsym
   LCORR  =      T    Harris-Foulkes like correction to forces

   POTIM  = 0.0200    time-step for ionic-motion
   TEIN   =    0.0    initial temperature
   TEBEG  =    0.0;   TEEND  =   0.0 temperature during run
   SMASS  =  -3.00    Nose mass-parameter (am)
   estimated Nose-frequenzy (Omega)   =  0.10E-29 period in steps =****** mass=  -0.914E-26a.u.
   SCALEE = 1.0000    scale energy and forces
   NPACO  =    256;   APACO  = 16.0  distance and # of slots for P.C.
   PSTRESS=    0.0 pullay stress

  Mass of Ions in am
   POMASS =  12.01 16.00  1.00
  Ionic Valenz
   ZVAL   =   4.00  6.00  1.00
  Atomic Wigner-Seitz radii
   RWIGS  =  -1.00 -1.00 -1.00
  virtual crystal weights 
   VCA    =   1.00  1.00  1.00
   NELECT =      26.0000    total number of electrons
   NUPDOWN=      -1.0000    fix difference up-down

 DOS related values:
   EMIN   =  10.00;   EMAX   =-10.00  energy-range for DOS
   EFERMI =   0.00
   ISMEAR =     2;   SIGMA  =   0.20  broadening in eV -4-tet -1-fermi 0-gaus

 Electronic relaxation 2 (details)
   IALGO  =     38    algorithm
   LDIAG  =      T    sub-space diagonalisation (order eigenvalues)
   LSUBROT=      F    optimize rotation matrix (better conditioning)
   TURBO    =      0    0=normal 1=particle mesh
   IRESTART =      0    0=no restart 2=restart with 2 vectors
   NREBOOT  =      0    no. of reboots
   NMIN     =      0    reboot dimension
   EREF     =   0.00    reference energy to select bands
   IMIX   =      4    mixing-type and parameters
     AMIX     =   0.40;   BMIX     =  1.00
     AMIX_MAG =   1.60;   BMIX_MAG =  1.00
     AMIN     =   0.10
     WC   =   100.;   INIMIX=   1;  MIXPRE=   1;  MAXMIX= -45

 Intra band minimization:
   WEIMIN = 0.0010     energy-eigenvalue tresh-hold
   EBREAK =  0.10E-07  absolut break condition
   DEPER  =   0.30     relativ break condition  

   TIME   =   0.40     timestep for ELM

  volume/ion in A,a.u.               =     666.67      4498.89
  Fermi-wavevector in a.u.,A,eV,Ry     =   0.242495  0.458249  0.800074  0.058804
  Thomas-Fermi vector in A             =   1.050038
 
 Write flags
   LWAVE  =      F    write WAVECAR
   LCHARG =      F    write CHGCAR
   LVTOT  =      F    write LOCPOT, total local potential
   LVHAR  =      F    write LOCPOT, Hartree potential only
   LELF   =      F    write electronic localiz. function (ELF)
   LORBIT =      0    0 simple, 1 ext, 2 COOP (PROOUT)


 Dipole corrections
   LMONO  =      F    monopole corrections only (constant potential shift)
   LDIPOL =      F    correct potential (dipole corrections)
   IDIPOL =      3    1-x, 2-y, 3-z, 4-all directions 
   EPSILON=  1.0000000 bulk dielectric constant

 Exchange correlation treatment:
   GGA     =    PE    GGA type
   LEXCH   =     8    internal setting for exchange type
   VOSKOWN=      0    Vosko Wilk Nusair interpolation
   LHFCALC =     F    Hartree Fock is set to
   LHFONE  =     F    Hartree Fock one center treatment
   AEXX    =    0.0000 exact exchange contribution

 Linear response parameters
   LEPSILON=     F    determine dielectric tensor
   LRPA    =     F    only Hartree local field effects (RPA)
   LNABLA  =     F    use nabla operator in PAW spheres
   LVEL    =     F    velocity operator in full k-point grid
   LINTERFAST=   F  fast interpolation
   KINTER  =     0    interpolate to denser k-point grid
   CSHIFT  =0.1000    complex shift for real part using Kramers Kronig
   OMEGAMAX=  -1.0    maximum frequency
   DEG_THRESHOLD= 0.2000000E-02 threshold for treating states as degnerate
   RTIME   =    0.100 relaxation time in fs

 Orbital magnetization related:
   ORBITALMAG=     F  switch on orbital magnetization
   LCHIMAG   =     F  perturbation theory with respect to B field
   DQ        =  0.001000  dq finite difference perturbation B field



--------------------------------------------------------------------------------------------------------


 finite differences
 charge density and potential will be updated during run
 non-spin polarized calculation
 Variant of blocked Davidson
 Davidson routine will perform the subspace rotation
 perform sub-space diagonalisation
    after iterative eigenvector-optimisation
 modified Broyden-mixing scheme, WC =      100.0
 initial mixing is a Kerker type mixing with AMIX =  0.4000 and BMIX =      1.0000
 Hartree-type preconditioning will be used
 using additional bands           11
 real space projection scheme for non local part
 use partial core corrections
 calculate Harris-corrections to forces 
   (improved forces if not selfconsistent)
 use gradient corrections 
 use of overlap-Matrix (Vanderbilt PP)
 Methfessel and Paxton  Order N= 2 SIGMA  =   0.20


--------------------------------------------------------------------------------------------------------


  energy-cutoff  :      400.00
  volume of cell :     8000.00
      direct lattice vectors                 reciprocal lattice vectors
    20.000000000  0.000000000  0.000000000     0.050000000  0.000000000  0.000000000
     0.000000000 20.000000000  0.000000000     0.000000000  0.050000000  0.000000000
     0.000000000  0.000000000 20.000000000     0.000000000  0.000000000  0.050000000

  length of vectors
    20.000000000 20.000000000 20.000000000     0.050000000  0.050000000  0.050000000


 
 k-points in units of 2pi/SCALE and weight:  Automatic mesh                         
   0.00000000  0.00000000  0.00000000       1.000
 
 k-points in reciprocal lattice and weights:  Automatic mesh                         
   0.00000000  0.00000000  0.00000000       1.000
 
 position of ions in fractional coordinates (direct lattice) 
   0.45286383  0.49192410  0.45749528
   0.49449992  0.49318473  0.52120122
   0.56893242  0.49661915  0.50698609
   0.47904145  0.55110101  0.56121165
   0.39904390  0.48912850  0.46887076
   0.46564368  0.44820354  0.42659829
   0.46210000  0.53749725  0.42808128
   0.43096127  0.55184369  0.56878500
   0.48394148  0.44746799  0.55071249
   0.58519656  0.45255430  0.47844566
   0.58036105  0.54176657  0.47770272
   0.59741439  0.49870922  0.55390961
 
 position of ions in cartesian coordinates  (Angst):
   9.05727661  9.83848203  9.14990568
   9.88999836  9.86369459 10.42402443
  11.37864832  9.93238305 10.13972189
   9.58082902 11.02202026 11.22423306
   7.98087805  9.78257010  9.37741512
   9.31287361  8.96407078  8.53196577
   9.24199996 10.74994491  8.56162567
   8.61922543 11.03687378 11.37569991
   9.67882963  8.94935989 11.01424978
  11.70393119  9.05108601  9.56891312
  11.60722100 10.83533131  9.55405439
  11.94828783  9.97418430 11.07819218
 


--------------------------------------------------------------------------------------------------------


 k-point  1 :   0.0000 0.0000 0.0000  plane waves:  145165

 maximum and minimum number of plane-waves per node :    145165   145165

 maximum number of plane-waves:    145165
 maximum index in each direction: 
   IXMAX=   32   IYMAX=   32   IZMAX=   32
   IXMIN=  -32   IYMIN=  -32   IZMIN=  -32

 WARNING: aliasing errors must be expected set NGX to 130 to avoid them
 WARNING: aliasing errors must be expected set NGY to 130 to avoid them
 WARNING: aliasing errors must be expected set NGZ to 130 to avoid them
 aliasing errors are usually negligible using standard VASP settings
 and one can safely disregard these warnings

 serial   3D FFT for wavefunctions
 parallel 3D FFT for charge:
    minimum data exchange during FFTs selected (reduces bandwidth)


 total amount of memory used by VASP on root node   173904. kBytes
========================================================================

   base      :      30000. kBytes
   nonlr-proj:        917. kBytes
   fftplans  :      36243. kBytes
   grid      :      99737. kBytes
   one-center:         36. kBytes
   wavefun   :       6971. kBytes
 
     INWAV:  cpu time    0.00: real time    0.00
 Broyden mixing: mesh for mixing (old mesh)
   NGX = 65   NGY = 65   NGZ = 65
  (NGX  =196   NGY  =196   NGZ  =196)
  gives a total of 274625 points

 initial charge density was supplied:
 charge density of overlapping atoms calculated
 number of electron      26.0000000 magnetization 
 keeping initial charge density in first step


--------------------------------------------------------------------------------------------------------


 Maximum index for non-local projection operator         1266
 Maximum index for augmentation-charges          190 (set IRDMAX)


--------------------------------------------------------------------------------------------------------


 First call to EWALD:  gamma=   0.089
 Maximum number of real-space cells 3x 3x 3
 Maximum number of reciprocal cells 3x 3x 3

 FEWALD executed in parallel
    FEWALD:  cpu time    0.00: real time    0.00


----------------------------------------- Iteration    1(   1)  ---------------------------------------


    POTLOK:  cpu time    0.98: real time    0.98
    SETDIJ:  cpu time    0.00: real time    0.00
     EDDAV:  cpu time    1.25: real time    1.25
       DOS:  cpu time    0.00: real time    0.00
    --------------------------------------------
      LOOP:  cpu time    2.24: real time    2.24

 eigenvalue-minimisations  :    64
 total energy-change (2. order) : 0.1803049E+03  (-0.4667392E+03)
 number of electron      26.0000000 magnetization 
 augmentation part       26.0000000 magnetization 

 Free energy of the ion-electron system (eV)
  ---------------------------------------------------
  alpha Z        PSCENC =         0.33883997
  Ewald energy   TEWEN  =      1465.22334558
  -Hartree energ DENC   =     -2144.16941804
  -exchange      EXHF   =         0.00000000
  -V(xc)+E(xc)   XCENC  =        85.78169611
  PAW double counting   =       689.18783552     -692.76574588
  entropy T*S    EENTRO =        -0.01909715
  eigenvalues    EBANDS =      -196.74647818
  atomic energy  EATOM  =       973.47392897
  Solvation contrib.  Ediel  =         0.00000000
  ---------------------------------------------------
  free energy    TOTEN  =       180.30490689 eV

  energy without entropy =      180.32400404  energy(sigma->0) =      180.30968118


--------------------------------------------------------------------------------------------------------




----------------------------------------- Iteration    1(   2)  ---------------------------------------


     EDDAV:  cpu time    1.49: real time    1.49
       DOS:  cpu time    0.00: real time    0.00
    --------------------------------------------
      LOOP:  cpu time    1.49: real time    1.49

 eigenvalue-minimisations  :    80
 total energy-change (2. order) :-0.1499785E+03  (-0.1467661E+03)
 number of electron      26.0000000 magnetization 
 augmentation part       26.0000000 magnetization 

 Free energy of the ion-electron system (eV)
  ---------------------------------------------------
  alpha Z        PSCENC =         0.33883997
  Ewald energy   TEWEN  =      1465.22334558
  -Hartree energ DENC   =     -2144.16941804
  -exchange      EXHF   =         0.00000000
  -V(xc)+E(xc)   XCENC  =        85.78169611
  PAW double counting   =       689.18783552     -692.76574588
  entropy T*S    EENTRO =         0.01027684
  eigenvalues    EBANDS =      -346.75438687
  atomic energy  EATOM  =       973.47392897
  Solvation contrib.  Ediel  =         0.00000000
  ---------------------------------------------------
  free energy    TOTEN  =        30.32637220 eV

  energy without entropy =       30.31609536  energy(sigma->0) =       30.32380299


--------------------------------------------------------------------------------------------------------




----------------------------------------- Iteration    1(   3)  ---------------------------------------


     EDDAV:  cpu time    1.36: real time    1.36
       DOS:  cpu time    0.00: real time    0.00
    --------------------------------------------
      LOOP:  cpu time    1.36: real time    1.36

 eigenvalue-minimisations  :    72
 total energy-change (2. order) :-0.8923843E+02  (-0.8885776E+02)
 number of electron      26.0000000 magnetization 
 augmentation part       26.0000000 magnetization 

 Free energy of the ion-electron system (eV)
  ---------------------------------------------------
  alpha Z        PSCENC =         0.33883997
  Ewald energy   TEWEN  =      1465.22334558
  -Hartree energ DENC   =     -2144.16941804
  -exchange      EXHF   =         0.00000000
  -V(xc)+E(xc)   XCENC  =        85.78169611
  PAW double counting   =       689.18783552     -692.76574588
  entropy T*S    EENTRO =         0.01101221
  eigenvalues    EBANDS =      -435.99355717
  atomic energy  EATOM  =       973.47392897
  Solvation contrib.  Ediel  =         0.00000000
  ---------------------------------------------------
  free energy    TOTEN  =       -58.91206273 eV

  energy without entropy =      -58.92307494  energy(sigma->0) =      -58.91481579


--------------------------------------------------------------------------------------------------------




----------------------------------------- Iteration    1(   4)  ---------------------------------------


     EDDAV:  cpu time    1.26: real time    1.26
       DOS:  cpu time    0.00: real time    0.00
    --------------------------------------------
      LOOP:  cpu time    1.26: real time    1.26

 eigenvalue-minimisations  :    64
 total energy-change (2. order) :-0.1163191E+02  (-0.1161297E+02)
 number of electron      26.0000000 magnetization 
 augmentation part       26.0000000 magnetization 

 Free energy of the ion-electron system (eV)
  ---------------------------------------------------
  alpha Z        PSCENC =         0.33883997
  Ewald energy   TEWEN  =      1465.22334558
  -Hartree energ DENC   =     -2144.16941804
  -exchange      EXHF   =         0.00000000
  -V(xc)+E(xc)   XCENC  =        85.78169611
  PAW double counting   =       689.18783552     -692.76574588
  entropy T*S    EENTRO =         0.01101221
  eigenvalues    EBANDS =      -447.62546437
  atomic energy  EATOM  =       973.47392897
  Solvation contrib.  Ediel  =         0.00000000
  ---------------------------------------------------
  free energy    TOTEN  =       -70.54396994 eV

  energy without entropy =      -70.55498214  energy(sigma->0) =      -70.54672299


--------------------------------------------------------------------------------------------------------




----------------------------------------- Iteration    1(   5)  ---------------------------------------


     EDDAV:  cpu time    1.48: real time    1.48
       DOS:  cpu time    0.00: real time    0.00
    CHARGE:  cpu time    0.16: real time    0.16
    MIXING:  cpu time    0.02: real time    0.02
    --------------------------------------------
      LOOP:  cpu time    1.66: real time    1.66

 eigenvalue-minimisations  :    80
 total energy-change (2. order) :-0.2116498E+00  (-0.2116107E+00)
 number of electron      26.0000059 magnetization 
 augmentation part        1.2653040 magnetization 

 Broyden mixing:
  rms(total) = 0.13644E+01    rms(broyden)= 0.13632E+01
  rms(prec ) = 0.15052E+01
  weight for this iteration     100.00

 Free energy of the ion-electron system (eV)
  ---------------------------------------------------
  alpha Z        PSCENC =         0.33883997
  Ewald energy   TEWEN  =      1465.22334558
  -Hartree energ DENC   =     -2144.16941804
  -exchange      EXHF   =         0.00000000
  -V(xc)+E(xc)   XCENC  =        85.78169611
  PAW double counting   =       689.18783552     -692.76574588
  entropy T*S    EENTRO =         0.01101221
  eigenvalues    EBANDS =      -447.83711414
  atomic energy  EATOM  =       973.47392897
  Solvation contrib.  Ediel  =         0.00000000
  ---------------------------------------------------
  free energy    TOTEN  =       -70.75561970 eV

  energy without entropy =      -70.76663191  energy(sigma->0) =      -70.75837275


--------------------------------------------------------------------------------------------------------




----------------------------------------- Iteration    1(   6)  ---------------------------------------


    POTLOK:  cpu time    0.89: real time    0.89
    SETDIJ:  cpu time    0.00: real time    0.00
     EDDAV:  cpu time    1.36: real time    1.36
       DOS:  cpu time    0.00: real time    0.00
    CHARGE:  cpu time    0.16: real time    0.16
    MIXING:  cpu time    0.02: real time    0.03
    --------------------------------------------
      LOOP:  cpu time    2.45: real time    2.45

 eigenvalue-minimisations  :    72
 total energy-change (2. order) : 0.5845049E+01  (-0.1285717E+01)
 number of electron      26.0000048 magnetization 
 augmentation part        1.1296504 magnetization 

 Broyden mixing:
  rms(total) = 0.68330E+00    rms(broyden)= 0.68307E+00
  rms(prec ) = 0.73586E+00
  weight for this iteration     100.00

 eigenvalues of (default mixing * dielectric matrix)
  average eigenvalue GAMMA=   1.3286
  1.3286

 Free energy of the ion-electron system (eV)
  ---------------------------------------------------
  alpha Z        PSCENC =         0.33883997
  Ewald energy   TEWEN  =      1465.22334558
  -Hartree energ DENC   =     -2203.42002283
  -exchange      EXHF   =         0.00000000
  -V(xc)+E(xc)   XCENC  =        88.78225397
  PAW double counting   =      1083.68844916    -1087.86565646
  entropy T*S    EENTRO =         0.01101221
  eigenvalues    EBANDS =      -385.14272100
  atomic energy  EATOM  =       973.47392897
  Solvation contrib.  Ediel  =         0.00000000
  ---------------------------------------------------
  free energy    TOTEN  =       -64.91057044 eV

  energy without entropy =      -64.92158265  energy(sigma->0) =      -64.91332349


--------------------------------------------------------------------------------------------------------




----------------------------------------- Iteration    1(   7)  ---------------------------------------


    POTLOK:  cpu time    0.90: real time    0.90
    SETDIJ:  cpu time    0.00: real time    0.00
     EDDAV:  cpu time    1.36: real time    1.36
       DOS:  cpu time    0.00: real time    0.00
    CHARGE:  cpu time    0.16: real time    0.16
    MIXING:  cpu time    0.02: real time    0.02
    --------------------------------------------
      LOOP:  cpu time    2.45: real time    2.45

 eigenvalue-minimisations  :    72
 total energy-change (2. order) : 0.1061108E+01  (-0.2760826E+00)
 number of electron      26.0000046 magnetization 
 augmentation part        1.1020365 magnetization 

 Broyden mixing:
  rms(total) = 0.35600E+00    rms(broyden)= 0.35588E+00
  rms(prec ) = 0.37698E+00
  weight for this iteration     100.00

 eigenvalues of (default mixing * dielectric matrix)
  average eigenvalue GAMMA=   1.7604
  1.3269  2.1939

 Free energy of the ion-electron system (eV)
  ---------------------------------------------------
  alpha Z        PSCENC =         0.33883997
  Ewald energy   TEWEN  =      1465.22334558
  -Hartree energ DENC   =     -2236.28274942
  -exchange      EXHF   =         0.00000000
  -V(xc)+E(xc)   XCENC  =        90.58862168
  PAW double counting   =      1480.87528142    -1485.15107085
  entropy T*S    EENTRO =         0.01101221
  eigenvalues    EBANDS =      -352.92667239
  atomic energy  EATOM  =       973.47392897
  Solvation contrib.  Ediel  =         0.00000000
  ---------------------------------------------------
  free energy    TOTEN  =       -63.84946283 eV

  energy without entropy =      -63.86047504  energy(sigma->0) =      -63.85221588


--------------------------------------------------------------------------------------------------------




----------------------------------------- Iteration    1(   8)  ---------------------------------------


    POTLOK:  cpu time    0.90: real time    0.90
    SETDIJ:  cpu time    0.00: real time    0.00
     EDDAV:  cpu time    1.36: real time    1.36
       DOS:  cpu time    0.00: real time    0.00
    CHARGE:  cpu time    0.16: real time    0.16
    MIXING:  cpu time    0.02: real time    0.02
    --------------------------------------------
      LOOP:  cpu time    2.44: real time    2.44

 eigenvalue-minimisations  :    72
 total energy-change (2. order) : 0.2897863E+00  (-0.5321081E-01)
 number of electron      26.0000047 magnetization 
 augmentation part        1.1074939 magnetization 

 Broyden mixing:
  rms(total) = 0.69276E-01    rms(broyden)= 0.69199E-01
  rms(prec ) = 0.85144E-01
  weight for this iteration     100.00

 eigenvalues of (default mixing * dielectric matrix)
  average eigenvalue GAMMA=   1.5639
  2.2430  1.2244  1.2244

 Free energy of the ion-electron system (eV)
  ---------------------------------------------------
  alpha Z        PSCENC =         0.33883997
  Ewald energy   TEWEN  =      1465.22334558
  -Hartree energ DENC   =     -2253.81159701
  -exchange      EXHF   =         0.00000000
  -V(xc)+E(xc)   XCENC  =        91.72100973
  PAW double counting   =      1804.61696571    -1808.83577087
  entropy T*S    EENTRO =         0.01101221
  eigenvalues    EBANDS =      -336.29741080
  atomic energy  EATOM  =       973.47392897
  Solvation contrib.  Ediel  =         0.00000000
  ---------------------------------------------------
  free energy    TOTEN  =       -63.55967652 eV

  energy without entropy =      -63.57068873  energy(sigma->0) =      -63.56242957


--------------------------------------------------------------------------------------------------------




----------------------------------------- Iteration    1(   9)  ---------------------------------------


    POTLOK:  cpu time    0.89: real time    0.89
    SETDIJ:  cpu time    0.00: real time    0.00
     EDDAV:  cpu time    1.36: real time    1.36
       DOS:  cpu time    0.00: real time    0.00
    CHARGE:  cpu time    0.27: real time    0.27
    MIXING:  cpu time    0.02: real time    0.02
    --------------------------------------------
      LOOP:  cpu time    2.54: real time    2.55

 eigenvalue-minimisations  :    72
 total energy-change (2. order) : 0.2700541E-01  (-0.6559454E-02)
 number of electron      26.0000046 magnetization 
 augmentation part        1.0980033 magnetization 

 Broyden mixing:
  rms(total) = 0.37010E-01    rms(broyden)= 0.36985E-01
  rms(prec ) = 0.50089E-01
  weight for this iteration     100.00

 eigenvalues of (default mixing * dielectric matrix)
  average eigenvalue GAMMA=   1.6036
  2.0936  2.0936  1.1135  1.1135

 Free energy of the ion-electron system (eV)
  ---------------------------------------------------
  alpha Z        PSCENC =         0.33883997
  Ewald energy   TEWEN  =      1465.22334558
  -Hartree energ DENC   =     -2259.21100942
  -exchange      EXHF   =         0.00000000
  -V(xc)+E(xc)   XCENC  =        91.94645954
  PAW double counting   =      1832.48418454    -1836.71891867
  entropy T*S    EENTRO =         0.01101221
  eigenvalues    EBANDS =      -331.08051382
  atomic energy  EATOM  =       973.47392897
  Solvation contrib.  Ediel  =         0.00000000
  ---------------------------------------------------
  free energy    TOTEN  =       -63.53267111 eV

  energy without entropy =      -63.54368331  energy(sigma->0) =      -63.53542416


--------------------------------------------------------------------------------------------------------




----------------------------------------- Iteration    1(  10)  ---------------------------------------


    POTLOK:  cpu time    0.91: real time    0.91
    SETDIJ:  cpu time    0.00: real time    0.00
     EDDAV:  cpu time    1.00: real time    1.00
       DOS:  cpu time    0.00: real time    0.00
    CHARGE:  cpu time    0.19: real time    0.19
    MIXING:  cpu time    0.02: real time    0.03
    --------------------------------------------
      LOOP:  cpu time    2.13: real time    2.13

 eigenvalue-minimisations  :    48
 total energy-change (2. order) : 0.8434669E-02  (-0.1192950E-02)
 number of electron      26.0000046 magnetization 
 augmentation part        1.0979094 magnetization 

 Broyden mixing:
  rms(total) = 0.17447E-01    rms(broyden)= 0.17442E-01
  rms(prec ) = 0.29715E-01
  weight for this iteration     100.00

 eigenvalues of (default mixing * dielectric matrix)
  average eigenvalue GAMMA=   1.5401
  2.0589  2.0589  0.9494  1.3167  1.3167

 Free energy of the ion-electron system (eV)
  ---------------------------------------------------
  alpha Z        PSCENC =         0.33883997
  Ewald energy   TEWEN  =      1465.22334558
  -Hartree energ DENC   =     -2262.43952548
  -exchange      EXHF   =         0.00000000
  -V(xc)+E(xc)   XCENC  =        92.02169696
  PAW double counting   =      1834.27667405    -1838.48753263
  entropy T*S    EENTRO =         0.01101221
  eigenvalues    EBANDS =      -327.94267606
  atomic energy  EATOM  =       973.47392897
  Solvation contrib.  Ediel  =         0.00000000
  ---------------------------------------------------
  free energy    TOTEN  =       -63.52423644 eV

  energy without entropy =      -63.53524864  energy(sigma->0) =      -63.52698949


--------------------------------------------------------------------------------------------------------




----------------------------------------- Iteration    1(  11)  ---------------------------------------


    POTLOK:  cpu time    0.90: real time    0.90
    SETDIJ:  cpu time    0.00: real time    0.00
     EDDAV:  cpu time    1.34: real time    1.34
       DOS:  cpu time    0.00: real time    0.00
    CHARGE:  cpu time    0.18: real time    0.18
    MIXING:  cpu time    0.03: real time    0.03
    --------------------------------------------
      LOOP:  cpu time    2.45: real time    2.45

 eigenvalue-minimisations  :    72
 total energy-change (2. order) : 0.4769436E-03  (-0.4883534E-03)
 number of electron      26.0000046 magnetization 
 augmentation part        1.0984448 magnetization 

 Broyden mixing:
  rms(total) = 0.11295E-01    rms(broyden)= 0.11288E-01
  rms(prec ) = 0.21071E-01
  weight for this iteration     100.00

 eigenvalues of (default mixing * dielectric matrix)
  average eigenvalue GAMMA=   1.7528
  3.3127  2.5293  1.4277  1.1689  1.1689  0.9097

 Free energy of the ion-electron system (eV)
  ---------------------------------------------------
  alpha Z        PSCENC =         0.33883997
  Ewald energy   TEWEN  =      1465.22334558
  -Hartree energ DENC   =     -2264.95742545
  -exchange      EXHF   =         0.00000000
  -V(xc)+E(xc)   XCENC  =        92.06752306
  PAW double counting   =      1830.52720719    -1834.73624532
  entropy T*S    EENTRO =         0.01101221
  eigenvalues    EBANDS =      -325.47194570
  atomic energy  EATOM  =       973.47392897
  Solvation contrib.  Ediel  =         0.00000000
  ---------------------------------------------------
  free energy    TOTEN  =       -63.52375949 eV

  energy without entropy =      -63.53477170  energy(sigma->0) =      -63.52651255


--------------------------------------------------------------------------------------------------------




----------------------------------------- Iteration    1(  12)  ---------------------------------------


    POTLOK:  cpu time    0.91: real time    0.91
    SETDIJ:  cpu time    0.00: real time    0.00
     EDDAV:  cpu time    1.00: real time    1.00
       DOS:  cpu time    0.00: real time    0.00
    CHARGE:  cpu time    0.30: real time    0.30
    MIXING:  cpu time    0.03: real time    0.03
    --------------------------------------------
      LOOP:  cpu time    2.25: real time    2.25

 eigenvalue-minimisations  :    48
 total energy-change (2. order) : 0.1634028E-02  (-0.7505722E-03)
 number of electron      26.0000046 magnetization 
 augmentation part        1.0966485 magnetization 

 Broyden mixing:
  rms(total) = 0.74241E-02    rms(broyden)= 0.74215E-02
  rms(prec ) = 0.11271E-01
  weight for this iteration     100.00

 eigenvalues of (default mixing * dielectric matrix)
  average eigenvalue GAMMA=   1.6901
  3.4360  2.4445  1.3973  1.2901  1.2901  0.9862  0.9862

 Free energy of the ion-electron system (eV)
  ---------------------------------------------------
  alpha Z        PSCENC =         0.33883997
  Ewald energy   TEWEN  =      1465.22334558
  -Hartree energ DENC   =     -2269.56372724
  -exchange      EXHF   =         0.00000000
  -V(xc)+E(xc)   XCENC  =        92.15640691
  PAW double counting   =      1821.00723030    -1825.21710163
  entropy T*S    EENTRO =         0.01101221
  eigenvalues    EBANDS =      -320.95206052
  atomic energy  EATOM  =       973.47392897
  Solvation contrib.  Ediel  =         0.00000000
  ---------------------------------------------------
  free energy    TOTEN  =       -63.52212547 eV

  energy without entropy =      -63.53313767  energy(sigma->0) =      -63.52487852


--------------------------------------------------------------------------------------------------------




----------------------------------------- Iteration    1(  13)  ---------------------------------------


    POTLOK:  cpu time    0.92: real time    0.92
    SETDIJ:  cpu time    0.00: real time    0.00
     EDDAV:  cpu time    1.24: real time    1.24
       DOS:  cpu time    0.00: real time    0.00
    CHARGE:  cpu time    0.30: real time    0.30
    MIXING:  cpu time    0.03: real time    0.03
    --------------------------------------------
      LOOP:  cpu time    2.50: real time    2.50

 eigenvalue-minimisations  :    64
 total energy-change (2. order) :-0.5370901E-02  (-0.1306180E-03)
 number of electron      26.0000046 magnetization 
 augmentation part        1.0956066 magnetization 

 Broyden mixing:
  rms(total) = 0.57371E-02    rms(broyden)= 0.57347E-02
  rms(prec ) = 0.85266E-02
  weight for this iteration     100.00

 eigenvalues of (default mixing * dielectric matrix)
  average eigenvalue GAMMA=   1.7620
  3.9905  2.5116  1.9317  1.5885  1.1126  1.1126  0.9243  0.9243

 Free energy of the ion-electron system (eV)
  ---------------------------------------------------
  alpha Z        PSCENC =         0.33883997
  Ewald energy   TEWEN  =      1465.22334558
  -Hartree energ DENC   =     -2270.49333793
  -exchange      EXHF   =         0.00000000
  -V(xc)+E(xc)   XCENC  =        92.16848141
  PAW double counting   =      1823.05078518    -1827.26106855
  entropy T*S    EENTRO =         0.01101221
  eigenvalues    EBANDS =      -320.03948321
  atomic energy  EATOM  =       973.47392897
  Solvation contrib.  Ediel  =         0.00000000
  ---------------------------------------------------
  free energy    TOTEN  =       -63.52749637 eV

  energy without entropy =      -63.53850857  energy(sigma->0) =      -63.53024942


--------------------------------------------------------------------------------------------------------




----------------------------------------- Iteration    1(  14)  ---------------------------------------


    POTLOK:  cpu time    0.92: real time    0.92
    SETDIJ:  cpu time    0.00: real time    0.00
     EDDAV:  cpu time    1.11: real time    1.11
       DOS:  cpu time    0.00: real time    0.00
    CHARGE:  cpu time    0.30: real time    0.30
    MIXING:  cpu time    0.04: real time    0.04
    --------------------------------------------
      LOOP:  cpu time    2.37: real time    2.37

 eigenvalue-minimisations  :    56
 total energy-change (2. order) :-0.6055630E-02  (-0.1333712E-03)
 number of electron      26.0000046 magnetization 
 augmentation part        1.0967616 magnetization 

 Broyden mixing:
  rms(total) = 0.38760E-02    rms(broyden)= 0.38729E-02
  rms(prec ) = 0.54520E-02
  weight for this iteration     100.00

 eigenvalues of (default mixing * dielectric matrix)
  average eigenvalue GAMMA=   1.8900
  5.1532  2.8431  2.3702  1.3151  1.3151  1.0428  1.0428  0.9640  0.9640

 Free energy of the ion-electron system (eV)
  ---------------------------------------------------
  alpha Z        PSCENC =         0.33883997
  Ewald energy   TEWEN  =      1465.22334558
  -Hartree energ DENC   =     -2271.05545559
  -exchange      EXHF   =         0.00000000
  -V(xc)+E(xc)   XCENC  =        92.15537323
  PAW double counting   =      1821.68324204    -1825.88930578
  entropy T*S    EENTRO =         0.01101221
  eigenvalues    EBANDS =      -319.47453262
  atomic energy  EATOM  =       973.47392897
  Solvation contrib.  Ediel  =         0.00000000
  ---------------------------------------------------
  free energy    TOTEN  =       -63.53355200 eV

  energy without entropy =      -63.54456420  energy(sigma->0) =      -63.53630505


--------------------------------------------------------------------------------------------------------




----------------------------------------- Iteration    1(  15)  ---------------------------------------


    POTLOK:  cpu time    0.93: real time    0.93
    SETDIJ:  cpu time    0.00: real time    0.00
     EDDAV:  cpu time    1.24: real time    1.25
       DOS:  cpu time    0.00: real time    0.00
    CHARGE:  cpu time    0.30: real time    0.30
    MIXING:  cpu time    0.04: real time    0.04
    --------------------------------------------
      LOOP:  cpu time    2.52: real time    2.52

 eigenvalue-minimisations  :    64
 total energy-change (2. order) :-0.3581601E-02  (-0.4676061E-04)
 number of electron      26.0000046 magnetization 
 augmentation part        1.0963272 magnetization 

 Broyden mixing:
  rms(total) = 0.20920E-02    rms(broyden)= 0.20914E-02
  rms(prec ) = 0.31169E-02
  weight for this iteration     100.00

 eigenvalues of (default mixing * dielectric matrix)
  average eigenvalue GAMMA=   1.9791
  6.0304  3.0599  2.0925  2.0925  1.2994  1.2994  1.0334  1.0334  0.9250  0.9250

 Free energy of the ion-electron system (eV)
  ---------------------------------------------------
  alpha Z        PSCENC =         0.33883997
  Ewald energy   TEWEN  =      1465.22334558
  -Hartree energ DENC   =     -2271.66002786
  -exchange      EXHF   =         0.00000000
  -V(xc)+E(xc)   XCENC  =        92.15952801
  PAW double counting   =      1821.85949428    -1826.06664776
  entropy T*S    EENTRO =         0.01101221
  eigenvalues    EBANDS =      -318.87660700
  atomic energy  EATOM  =       973.47392897
  Solvation contrib.  Ediel  =         0.00000000
  ---------------------------------------------------
  free energy    TOTEN  =       -63.53713360 eV

  energy without entropy =      -63.54814581  energy(sigma->0) =      -63.53988665


--------------------------------------------------------------------------------------------------------




----------------------------------------- Iteration    1(  16)  ---------------------------------------


    POTLOK:  cpu time    0.92: real time    0.93
    SETDIJ:  cpu time    0.00: real time    0.00
     EDDAV:  cpu time    1.24: real time    1.24
       DOS:  cpu time    0.00: real time    0.00
    CHARGE:  cpu time    0.30: real time    0.30
    MIXING:  cpu time    0.04: real time    0.04
    --------------------------------------------
      LOOP:  cpu time    2.50: real time    2.51

 eigenvalue-minimisations  :    64
 total energy-change (2. order) :-0.2933235E-02  (-0.3248226E-04)
 number of electron      26.0000046 magnetization 
 augmentation part        1.0961421 magnetization 

 Broyden mixing:
  rms(total) = 0.10151E-02    rms(broyden)= 0.10143E-02
  rms(prec ) = 0.16749E-02
  weight for this iteration     100.00

 eigenvalues of (default mixing * dielectric matrix)
  average eigenvalue GAMMA=   2.1261
  6.7955  4.1111  2.5218  2.1718  1.4841  1.0121  1.0121  1.1987  1.1987  0.9407
  0.9407

 Free energy of the ion-electron system (eV)
  ---------------------------------------------------
  alpha Z        PSCENC =         0.33883997
  Ewald energy   TEWEN  =      1465.22334558
  -Hartree energ DENC   =     -2271.75255768
  -exchange      EXHF   =         0.00000000
  -V(xc)+E(xc)   XCENC  =        92.15213409
  PAW double counting   =      1821.53348957    -1825.73999329
  entropy T*S    EENTRO =         0.01101221
  eigenvalues    EBANDS =      -318.78026626
  atomic energy  EATOM  =       973.47392897
  Solvation contrib.  Ediel  =         0.00000000
  ---------------------------------------------------
  free energy    TOTEN  =       -63.54006683 eV

  energy without entropy =      -63.55107904  energy(sigma->0) =      -63.54281989


--------------------------------------------------------------------------------------------------------




----------------------------------------- Iteration    1(  17)  ---------------------------------------


    POTLOK:  cpu time    0.92: real time    0.93
    SETDIJ:  cpu time    0.00: real time    0.00
     EDDAV:  cpu time    1.24: real time    1.24
       DOS:  cpu time    0.00: real time    0.00
    CHARGE:  cpu time    0.30: real time    0.30
    MIXING:  cpu time    0.04: real time    0.04
    --------------------------------------------
      LOOP:  cpu time    2.52: real time    2.51

 eigenvalue-minimisations  :    64
 total energy-change (2. order) :-0.1578881E-02  (-0.1819692E-04)
 number of electron      26.0000046 magnetization 
 augmentation part        1.0960004 magnetization 

 Broyden mixing:
  rms(total) = 0.10919E-02    rms(broyden)= 0.10917E-02
  rms(prec ) = 0.13312E-02
  weight for this iteration     100.00

 eigenvalues of (default mixing * dielectric matrix)
  average eigenvalue GAMMA=   2.1166
  7.1983  4.2870  2.3726  2.3475  1.8076  1.0285  1.0285  1.2786  1.2786  0.9923
  0.9161  0.8636

 Free energy of the ion-electron system (eV)
  ---------------------------------------------------
  alpha Z        PSCENC =         0.33883997
  Ewald energy   TEWEN  =      1465.22334558
  -Hartree energ DENC   =     -2271.86427466
  -exchange      EXHF   =         0.00000000
  -V(xc)+E(xc)   XCENC  =        92.15186119
  PAW double counting   =      1822.49979697    -1826.70655367
  entropy T*S    EENTRO =         0.01101221
  eigenvalues    EBANDS =      -318.66960227
  atomic energy  EATOM  =       973.47392897
  Solvation contrib.  Ediel  =         0.00000000
  ---------------------------------------------------
  free energy    TOTEN  =       -63.54164571 eV

  energy without entropy =      -63.55265792  energy(sigma->0) =      -63.54439877


--------------------------------------------------------------------------------------------------------




----------------------------------------- Iteration    1(  18)  ---------------------------------------


    POTLOK:  cpu time    0.92: real time    0.91
    SETDIJ:  cpu time    0.00: real time    0.00
     EDDAV:  cpu time    1.36: real time    1.36
       DOS:  cpu time    0.00: real time    0.00
    CHARGE:  cpu time    0.30: real time    0.30
    MIXING:  cpu time    0.05: real time    0.05
    --------------------------------------------
      LOOP:  cpu time    2.63: real time    2.63

 eigenvalue-minimisations  :    72
 total energy-change (2. order) :-0.4960971E-03  (-0.3225915E-05)
 number of electron      26.0000046 magnetization 
 augmentation part        1.0961383 magnetization 

 Broyden mixing:
  rms(total) = 0.32069E-03    rms(broyden)= 0.31993E-03
  rms(prec ) = 0.53799E-03
  weight for this iteration     100.00

 eigenvalues of (default mixing * dielectric matrix)
  average eigenvalue GAMMA=   2.2167
  7.8141  4.9733  2.7858  2.5616  1.8459  1.6631  1.0317  1.0317  1.2115  1.0564
  1.0564  0.8926  0.8926

 Free energy of the ion-electron system (eV)
  ---------------------------------------------------
  alpha Z        PSCENC =         0.33883997
  Ewald energy   TEWEN  =      1465.22334558
  -Hartree energ DENC   =     -2271.85669168
  -exchange      EXHF   =         0.00000000
  -V(xc)+E(xc)   XCENC  =        92.14954864
  PAW double counting   =      1821.83676199    -1826.04365118
  entropy T*S    EENTRO =         0.01101221
  eigenvalues    EBANDS =      -318.67523630
  atomic energy  EATOM  =       973.47392897
  Solvation contrib.  Ediel  =         0.00000000
  ---------------------------------------------------
  free energy    TOTEN  =       -63.54214181 eV

  energy without entropy =      -63.55315402  energy(sigma->0) =      -63.54489486


--------------------------------------------------------------------------------------------------------




----------------------------------------- Iteration    1(  19)  ---------------------------------------


    POTLOK:  cpu time    0.92: real time    0.92
    SETDIJ:  cpu time    0.00: real time    0.00
     EDDAV:  cpu time    1.23: real time    1.23
       DOS:  cpu time    0.00: real time    0.00
    CHARGE:  cpu time    0.30: real time    0.30
    MIXING:  cpu time    0.05: real time    0.05
    --------------------------------------------
      LOOP:  cpu time    2.50: real time    2.50

 eigenvalue-minimisations  :    64
 total energy-change (2. order) :-0.3081358E-03  (-0.1523549E-05)
 number of electron      26.0000046 magnetization 
 augmentation part        1.0961742 magnetization 

 Broyden mixing:
  rms(total) = 0.42665E-03    rms(broyden)= 0.42650E-03
  rms(prec ) = 0.50133E-03
  weight for this iteration     100.00

 eigenvalues of (default mixing * dielectric matrix)
  average eigenvalue GAMMA=   2.2849
  8.0211  5.4692  3.1953  2.4509  2.4509  1.6465  1.6465  1.0426  1.0426  1.1317
  1.1317  0.9713  0.8946  0.8946

 Free energy of the ion-electron system (eV)
  ---------------------------------------------------
  alpha Z        PSCENC =         0.33883997
  Ewald energy   TEWEN  =      1465.22334558
  -Hartree energ DENC   =     -2271.85170633
  -exchange      EXHF   =         0.00000000
  -V(xc)+E(xc)   XCENC  =        92.14840689
  PAW double counting   =      1821.67557620    -1825.88240480
  entropy T*S    EENTRO =         0.01101221
  eigenvalues    EBANDS =      -318.67944863
  atomic energy  EATOM  =       973.47392897
  Solvation contrib.  Ediel  =         0.00000000
  ---------------------------------------------------
  free energy    TOTEN  =       -63.54244995 eV

  energy without entropy =      -63.55346215  energy(sigma->0) =      -63.54520300


--------------------------------------------------------------------------------------------------------




----------------------------------------- Iteration    1(  20)  ---------------------------------------


    POTLOK:  cpu time    0.92: real time    0.92
    SETDIJ:  cpu time    0.00: real time    0.00
     EDDAV:  cpu time    1.12: real time    1.12
       DOS:  cpu time    0.00: real time    0.00
    CHARGE:  cpu time    0.28: real time    0.28
    MIXING:  cpu time    0.06: real time    0.06
    --------------------------------------------
      LOOP:  cpu time    2.38: real time    2.38

 eigenvalue-minimisations  :    56
 total energy-change (2. order) :-0.1475523E-03  (-0.2703551E-06)
 number of electron      26.0000046 magnetization 
 augmentation part        1.0961566 magnetization 

 Broyden mixing:
  rms(total) = 0.23863E-03    rms(broyden)= 0.23860E-03
  rms(prec ) = 0.27506E-03
  weight for this iteration     100.00

 eigenvalues of (default mixing * dielectric matrix)
  average eigenvalue GAMMA=   2.2905
  8.4575  5.7669  3.6594  2.5770  2.3241  1.7906  1.6218  1.0398  1.0398  1.2454
  1.0636  1.0636  0.8991  0.8991  0.9102

 Free energy of the ion-electron system (eV)
  ---------------------------------------------------
  alpha Z        PSCENC =         0.33883997
  Ewald energy   TEWEN  =      1465.22334558
  -Hartree energ DENC   =     -2271.88095387
  -exchange      EXHF   =         0.00000000
  -V(xc)+E(xc)   XCENC  =        92.14897041
  PAW double counting   =      1821.87209998    -1826.07876334
  entropy T*S    EENTRO =         0.01101221
  eigenvalues    EBANDS =      -318.65107741
  atomic energy  EATOM  =       973.47392897
  Solvation contrib.  Ediel  =         0.00000000
  ---------------------------------------------------
  free energy    TOTEN  =       -63.54259750 eV

  energy without entropy =      -63.55360971  energy(sigma->0) =      -63.54535055


--------------------------------------------------------------------------------------------------------




----------------------------------------- Iteration    1(  21)  ---------------------------------------


    POTLOK:  cpu time    0.92: real time    0.92
    SETDIJ:  cpu time    0.00: real time    0.00
     EDDAV:  cpu time    1.25: real time    1.25
       DOS:  cpu time    0.00: real time    0.00
    CHARGE:  cpu time    0.26: real time    0.27
    MIXING:  cpu time    0.06: real time    0.06
    --------------------------------------------
      LOOP:  cpu time    2.50: real time    2.50

 eigenvalue-minimisations  :    64
 total energy-change (2. order) :-0.3998892E-04  (-0.1480650E-06)
 number of electron      26.0000046 magnetization 
 augmentation part        1.0961104 magnetization 

 Broyden mixing:
  rms(total) = 0.96299E-04    rms(broyden)= 0.96048E-04
  rms(prec ) = 0.12131E-03
  weight for this iteration     100.00

 eigenvalues of (default mixing * dielectric matrix)
  average eigenvalue GAMMA=   2.3742
  8.7518  6.1395  4.1434  2.5379  2.5379  2.1089  2.1089  1.5279  1.0401  1.0401
  1.1248  1.1085  1.1085  0.9107  0.9107  0.8868

 Free energy of the ion-electron system (eV)
  ---------------------------------------------------
  alpha Z        PSCENC =         0.33883997
  Ewald energy   TEWEN  =      1465.22334558
  -Hartree energ DENC   =     -2271.89093253
  -exchange      EXHF   =         0.00000000
  -V(xc)+E(xc)   XCENC  =        92.14913977
  PAW double counting   =      1821.87040982    -1826.07713936
  entropy T*S    EENTRO =         0.01101221
  eigenvalues    EBANDS =      -318.64124192
  atomic energy  EATOM  =       973.47392897
  Solvation contrib.  Ediel  =         0.00000000
  ---------------------------------------------------
  free energy    TOTEN  =       -63.54263749 eV

  energy without entropy =      -63.55364970  energy(sigma->0) =      -63.54539054


--------------------------------------------------------------------------------------------------------




----------------------------------------- Iteration    1(  22)  ---------------------------------------


    POTLOK:  cpu time    0.92: real time    0.92
    SETDIJ:  cpu time    0.00: real time    0.00
     EDDAV:  cpu time    0.87: real time    0.87
       DOS:  cpu time    0.00: real time    0.00
    CHARGE:  cpu time    0.27: real time    0.27
    MIXING:  cpu time    0.06: real time    0.06
    --------------------------------------------
      LOOP:  cpu time    2.13: real time    2.13

 eigenvalue-minimisations  :    40
 total energy-change (2. order) :-0.3573590E-04  (-0.3976747E-07)
 number of electron      26.0000046 magnetization 
 augmentation part        1.0961145 magnetization 

 Broyden mixing:
  rms(total) = 0.62268E-04    rms(broyden)= 0.62246E-04
  rms(prec ) = 0.72181E-04
  weight for this iteration     100.00

 eigenvalues of (default mixing * dielectric matrix)
  average eigenvalue GAMMA=   2.3604
  9.0172  6.5261  4.4600  2.9524  2.5262  2.2141  1.6588  1.6588  1.0406  1.0406
  1.2144  1.1081  1.1081  0.9593  0.8988  0.8988  0.8454

 Free energy of the ion-electron system (eV)
  ---------------------------------------------------
  alpha Z        PSCENC =         0.33883997
  Ewald energy   TEWEN  =      1465.22334558
  -Hartree energ DENC   =     -2271.89587255
  -exchange      EXHF   =         0.00000000
  -V(xc)+E(xc)   XCENC  =        92.14914100
  PAW double counting   =      1821.86773138    -1826.07449496
  entropy T*S    EENTRO =         0.01101221
  eigenvalues    EBANDS =      -318.63630484
  atomic energy  EATOM  =       973.47392897
  Solvation contrib.  Ediel  =         0.00000000
  ---------------------------------------------------
  free energy    TOTEN  =       -63.54267322 eV

  energy without entropy =      -63.55368543  energy(sigma->0) =      -63.54542628


--------------------------------------------------------------------------------------------------------




----------------------------------------- Iteration    1(  23)  ---------------------------------------


    POTLOK:  cpu time    0.93: real time    0.93
    SETDIJ:  cpu time    0.00: real time    0.00
     EDDAV:  cpu time    1.00: real time    1.00
       DOS:  cpu time    0.00: real time    0.00
    CHARGE:  cpu time    0.27: real time    0.27
    MIXING:  cpu time    0.06: real time    0.07
    --------------------------------------------
      LOOP:  cpu time    2.27: real time    2.27

 eigenvalue-minimisations  :    48
 total energy-change (2. order) :-0.5157061E-05  (-0.4463066E-08)
 number of electron      26.0000046 magnetization 
 augmentation part        1.0961162 magnetization 

 Broyden mixing:
  rms(total) = 0.53271E-04    rms(broyden)= 0.53268E-04
  rms(prec ) = 0.60038E-04
  weight for this iteration     100.00

 eigenvalues of (default mixing * dielectric matrix)
  average eigenvalue GAMMA=   2.3495
  9.1897  6.5996  4.5953  2.9919  2.5417  2.1820  1.6431  1.6431  1.5130  1.4224
  1.0374  1.0374  1.1930  1.0063  1.0063  0.9083  0.9083  0.8719

 Free energy of the ion-electron system (eV)
  ---------------------------------------------------
  alpha Z        PSCENC =         0.33883997
  Ewald energy   TEWEN  =      1465.22334558
  -Hartree energ DENC   =     -2271.89573247
  -exchange      EXHF   =         0.00000000
  -V(xc)+E(xc)   XCENC  =        92.14909028
  PAW double counting   =      1821.87394447    -1826.08069725
  entropy T*S    EENTRO =         0.01101221
  eigenvalues    EBANDS =      -318.63641014
  atomic energy  EATOM  =       973.47392897
  Solvation contrib.  Ediel  =         0.00000000
  ---------------------------------------------------
  free energy    TOTEN  =       -63.54267838 eV

  energy without entropy =      -63.55369059  energy(sigma->0) =      -63.54543143


--------------------------------------------------------------------------------------------------------




----------------------------------------- Iteration    1(  24)  ---------------------------------------


    POTLOK:  cpu time    0.92: real time    0.93
    SETDIJ:  cpu time    0.00: real time    0.00
     EDDAV:  cpu time    0.88: real time    0.87
       DOS:  cpu time    0.00: real time    0.00
    CHARGE:  cpu time    0.28: real time    0.28
    MIXING:  cpu time    0.08: real time    0.08
    --------------------------------------------
      LOOP:  cpu time    2.16: real time    2.16

 eigenvalue-minimisations  :    40
 total energy-change (2. order) :-0.4805634E-05  (-0.5598270E-08)
 number of electron      26.0000046 magnetization 
 augmentation part        1.0961207 magnetization 

 Broyden mixing:
  rms(total) = 0.20978E-04    rms(broyden)= 0.20959E-04
  rms(prec ) = 0.25675E-04
  weight for this iteration     100.00

 eigenvalues of (default mixing * dielectric matrix)
  average eigenvalue GAMMA=   2.3453
  9.3507  6.8020  4.7972  3.3764  2.4568  2.4568  1.8964  1.6247  1.3686  1.3686
  1.0399  1.0399  1.2536  1.0459  1.0015  1.0015  0.8832  0.8985  0.8985

 Free energy of the ion-electron system (eV)
  ---------------------------------------------------
  alpha Z        PSCENC =         0.33883997
  Ewald energy   TEWEN  =      1465.22334558
  -Hartree energ DENC   =     -2271.89475991
  -exchange      EXHF   =         0.00000000
  -V(xc)+E(xc)   XCENC  =        92.14903372
  PAW double counting   =      1821.86664130    -1826.07339534
  entropy T*S    EENTRO =         0.01101221
  eigenvalues    EBANDS =      -318.63732969
  atomic energy  EATOM  =       973.47392897
  Solvation contrib.  Ediel  =         0.00000000
  ---------------------------------------------------
  free energy    TOTEN  =       -63.54268319 eV

  energy without entropy =      -63.55369539  energy(sigma->0) =      -63.54543624


--------------------------------------------------------------------------------------------------------




----------------------------------------- Iteration    1(  25)  ---------------------------------------


    POTLOK:  cpu time    0.94: real time    0.93
    SETDIJ:  cpu time    0.00: real time    0.00
     EDDAV:  cpu time    1.13: real time    1.13
       DOS:  cpu time    0.00: real time    0.00
    CHARGE:  cpu time    0.28: real time    0.28
    MIXING:  cpu time    0.08: real time    0.08
    --------------------------------------------
      LOOP:  cpu time    2.43: real time    2.43

 eigenvalue-minimisations  :    56
 total energy-change (2. order) :-0.1394610E-05  (-0.1834717E-08)
 number of electron      26.0000046 magnetization 
 augmentation part        1.0961241 magnetization 

 Broyden mixing:
  rms(total) = 0.16839E-04    rms(broyden)= 0.16823E-04
  rms(prec ) = 0.19767E-04
  weight for this iteration     100.00

 eigenvalues of (default mixing * dielectric matrix)
  average eigenvalue GAMMA=   2.3740
  9.4398  6.9121  5.0226  3.5258  2.6575  2.6575  2.3305  1.9139  1.5525  1.2070
  1.2070  1.0403  1.0403  1.2317  1.0481  1.0481  0.9637  0.9035  0.9035  0.8752

 Free energy of the ion-electron system (eV)
  ---------------------------------------------------
  alpha Z        PSCENC =         0.33883997
  Ewald energy   TEWEN  =      1465.22334558
  -Hartree energ DENC   =     -2271.89421292
  -exchange      EXHF   =         0.00000000
  -V(xc)+E(xc)   XCENC  =        92.14900017
  PAW double counting   =      1821.86030470    -1826.06706422
  entropy T*S    EENTRO =         0.01101221
  eigenvalues    EBANDS =      -318.63783905
  atomic energy  EATOM  =       973.47392897
  Solvation contrib.  Ediel  =         0.00000000
  ---------------------------------------------------
  free energy    TOTEN  =       -63.54268458 eV

  energy without entropy =      -63.55369679  energy(sigma->0) =      -63.54543763


--------------------------------------------------------------------------------------------------------




----------------------------------------- Iteration    1(  26)  ---------------------------------------


    POTLOK:  cpu time    0.94: real time    0.94
    SETDIJ:  cpu time    0.01: real time    0.01
     EDDAV:  cpu time    0.97: real time    0.97
       DOS:  cpu time    0.00: real time    0.00
    CHARGE:  cpu time    0.28: real time    0.28
    MIXING:  cpu time    0.09: real time    0.09
    --------------------------------------------
      LOOP:  cpu time    2.28: real time    2.29

 eigenvalue-minimisations  :    40
 total energy-change (2. order) :-0.1225126E-05  (-0.5414247E-09)
 number of electron      26.0000046 magnetization 
 augmentation part        1.0961235 magnetization 

 Broyden mixing:
  rms(total) = 0.13649E-04    rms(broyden)= 0.13647E-04
  rms(prec ) = 0.15179E-04
  weight for this iteration     100.00

 eigenvalues of (default mixing * dielectric matrix)
  average eigenvalue GAMMA=   2.3532
  9.5227  7.0612  5.2262  3.8968  2.8290  2.4710  2.1609  1.7456  1.7456  1.2657
  1.2657  1.0409  1.0409  1.1764  1.1764  1.0892  1.0892  0.9007  0.9007  0.9341
  0.8795

 Free energy of the ion-electron system (eV)
  ---------------------------------------------------
  alpha Z        PSCENC =         0.33883997
  Ewald energy   TEWEN  =      1465.22334558
  -Hartree energ DENC   =     -2271.89470923
  -exchange      EXHF   =         0.00000000
  -V(xc)+E(xc)   XCENC  =        92.14901291
  PAW double counting   =      1821.86351255    -1826.07026409
  entropy T*S    EENTRO =         0.01101221
  eigenvalues    EBANDS =      -318.63736468
  atomic energy  EATOM  =       973.47392897
  Solvation contrib.  Ediel  =         0.00000000
  ---------------------------------------------------
  free energy    TOTEN  =       -63.54268581 eV

  energy without entropy =      -63.55369801  energy(sigma->0) =      -63.54543886


--------------------------------------------------------------------------------------------------------




----------------------------------------- Iteration    1(  27)  ---------------------------------------


    POTLOK:  cpu time    0.97: real time    0.96
    SETDIJ:  cpu time    0.00: real time    0.01
     EDDAV:  cpu time    1.28: real time    1.28
       DOS:  cpu time    0.00: real time    0.00
    --------------------------------------------
      LOOP:  cpu time    2.26: real time    2.26

 eigenvalue-minimisations  :    56
 total energy-change (2. order) :-0.4292403E-06  (-0.1139853E-09)
 number of electron      26.0000046 magnetization 
 augmentation part        1.0961235 magnetization 

 Free energy of the ion-electron system (eV)
  ---------------------------------------------------
  alpha Z        PSCENC =         0.33883997
  Ewald energy   TEWEN  =      1465.22334558
  -Hartree energ DENC   =     -2271.89493540
  -exchange      EXHF   =         0.00000000
  -V(xc)+E(xc)   XCENC  =        92.14902134
  PAW double counting   =      1821.86293483    -1826.06968989
  entropy T*S    EENTRO =         0.01101221
  eigenvalues    EBANDS =      -318.63714384
  atomic energy  EATOM  =       973.47392897
  Solvation contrib.  Ediel  =         0.00000000
  ---------------------------------------------------
  free energy    TOTEN  =       -63.54268624 eV

  energy without entropy =      -63.55369844  energy(sigma->0) =      -63.54543929


--------------------------------------------------------------------------------------------------------




 average (electrostatic) potential at core
  the test charge radii are     0.6991  0.7215  0.5201
  (the norm of the test charge is              1.0000)
       1 -58.3663       2 -59.6676       3 -58.2022       4 -80.2892       5 -41.8133
       6 -41.8125       7 -41.6763       8 -44.3930       9 -41.6196      10 -41.6979
      11 -41.5243      12 -41.5170
 
 
 
 E-fermi :  -6.0196     XC(G=0):  -0.2151     alpha+bet : -0.0746


 k-point     1 :       0.0000    0.0000    0.0000
  band No.  band energies     occupation 
      1     -25.3150      2.00000
      2     -19.0892      2.00000
      3     -16.9626      2.00000
      4     -14.3330      2.00000
      5     -12.4906      2.00000
      6     -11.0464      2.00000
      7     -10.5219      2.00000
      8      -9.3965      2.00000
      9      -9.1456      2.00000
     10      -8.7448      2.00000
     11      -8.4576      2.00000
     12      -7.6693      2.00000
     13      -6.1462      2.00000
     14      -0.6779      0.00000
     15      -0.0737      0.00000
     16       0.0532      0.00000
     17       0.0970      0.00000
     18       0.1466      0.00000
     19       0.3273      0.00000
     20       0.3494      0.00000
     21       0.4555      0.00000
     22       0.5082      0.00000
     23       0.5319      0.00000
     24       0.5466      0.00000


--------------------------------------------------------------------------------------------------------


 soft charge-density along one line, spin component           1
         0         1         2         3         4         5         6         7         8         9
 total charge-density along one line
 
 pseudopotential strength for first ion, spin component:           1
 10.227  13.600  -0.000  -0.000  -0.001   0.001   0.001   0.002
[...]
     11.607221 10.835331  9.554054    -0.226725    0.035172    0.073105  
     11.948288  9.974184 11.078192    -0.100506    0.061640    0.031678  
 
  21 f  =   28.104285 THz   176.584432 2PiTHz  937.458017 cm-1   116.230022 meV
             X         Y         Z           dx          dy          dz
      9.057277  9.838482  9.149906     0.280845   -0.166860   -0.021566  
      9.889998  9.863695 10.424024     0.224706   -0.167846   -0.312069  
     11.378648  9.932383 10.139722    -0.318308   -0.100056   -0.103766  
      9.580829 11.022020 11.224233    -0.060850    0.337607    0.282444  
      7.980878  9.782570  9.377415     0.143550    0.074749    0.330564  
      9.312874  8.964071  8.531966    -0.236121    0.018030   -0.222575  
      9.242000 10.749945  8.561626    -0.044716    0.062957    0.126672  
      8.619225 11.036874 11.375700    -0.039697   -0.058196   -0.035279  
      9.678830  8.949360 11.014250     0.056806    0.014549   -0.015836  
     11.703931  9.051086  9.568913     0.091903    0.005624    0.028917  
     11.607221 10.835331  9.554054    -0.067221    0.033088    0.078190  
     11.948288  9.974184 11.078192    -0.305622    0.008387    0.098516  
 
  22 f  =   27.586771 THz   173.332794 2PiTHz  920.195600 cm-1   114.089755 meV
             X         Y         Z           dx          dy          dz
      9.057277  9.838482  9.149906     0.058434    0.226109    0.228626  
      9.889998  9.863695 10.424024    -0.124001   -0.076014   -0.148387  
     11.378648  9.932383 10.139722     0.155489   -0.284940   -0.167835  
      9.580829 11.022020 11.224233    -0.093318    0.113435    0.045965  
      7.980878  9.782570  9.377415     0.016950   -0.146040    0.005676  
      9.312874  8.964071  8.531966     0.221827   -0.074873    0.338801  
      9.242000 10.749945  8.561626    -0.062824   -0.078946   -0.172224  
      8.619225 11.036874 11.375700    -0.029942   -0.063402   -0.015572  
      9.678830  8.949360 11.014250    -0.256925   -0.004321   -0.099806  
     11.703931  9.051086  9.568913     0.498021    0.117865   -0.083789  
     11.607221 10.835331  9.554054    -0.218117    0.096430    0.113622  
     11.948288  9.974184 11.078192    -0.108980    0.169282    0.036075  
 
  23 f  =   27.011629 THz   169.719069 2PiTHz  901.010923 cm-1   111.711157 meV
             X         Y         Z           dx          dy          dz
      9.057277  9.838482  9.149906    -0.136517   -0.093887    0.226541  
      9.889998  9.863695 10.424024    -0.109452   -0.031281   -0.093475  
     11.378648  9.932383 10.139722     0.039030    0.061009   -0.276770  
      9.580829 11.022020 11.224233    -0.022596    0.039986    0.031895  
      7.980878  9.782570  9.377415    -0.127994    0.085753   -0.358704  
      9.312874  8.964071  8.531966     0.185454    0.076418    0.012214  
      9.242000 10.749945  8.561626     0.326369    0.013567    0.234704  
      8.619225 11.036874 11.375700    -0.005208    0.024982    0.008425  
      9.678830  8.949360 11.014250     0.258406    0.002207    0.091908  
     11.703931  9.051086  9.568913     0.158957   -0.058324    0.122348  
     11.607221 10.835331  9.554054     0.385284    0.024631    0.087305  
     11.948288  9.974184 11.078192    -0.380057   -0.101635    0.170158  
 
  24 f  =   24.343868 THz   152.957032 2PiTHz  812.023995 cm-1   100.678180 meV
             X         Y         Z           dx          dy          dz
      9.057277  9.838482  9.149906    -0.270763   -0.140703   -0.343252  
      9.889998  9.863695 10.424024    -0.025952   -0.275351    0.155587  
     11.378648  9.932383 10.139722     0.405933   -0.090082   -0.020377  
      9.580829 11.022020 11.224233    -0.115377    0.331768    0.272253  
      7.980878  9.782570  9.377415    -0.103408    0.081205   -0.189064  
      9.312874  8.964071  8.531966    -0.142833    0.058279   -0.267025  
      9.242000 10.749945  8.561626     0.052018    0.040628    0.063191  
      8.619225 11.036874 11.375700    -0.037595    0.071533    0.031367  
      9.678830  8.949360 11.014250    -0.053824    0.013032    0.150842  
     11.703931  9.051086  9.568913     0.232946    0.062933   -0.079947  
     11.607221 10.835331  9.554054    -0.078224    0.026602   -0.005344  
     11.948288  9.974184 11.078192     0.214861    0.073345   -0.068708  
 
  25 f  =   14.045986 THz    88.253535 2PiTHz  468.523659 cm-1    58.089551 meV
             X         Y         Z           dx          dy          dz
      9.057277  9.838482  9.149906    -0.148111   -0.136931   -0.168003  
      9.889998  9.863695 10.424024     0.088015    0.453643   -0.247068  
     11.378648  9.932383 10.139722     0.217903   -0.120585   -0.015878  
      9.580829 11.022020 11.224233    -0.148252    0.028371    0.417524  
      7.980878  9.782570  9.377415    -0.017862   -0.161436    0.041716  
      9.312874  8.964071  8.531966     0.023202   -0.136355    0.114231  
      9.242000 10.749945  8.561626    -0.217191   -0.139669   -0.257589  
      8.619225 11.036874 11.375700    -0.053639   -0.030161    0.003481  
      9.678830  8.949360 11.014250     0.045332    0.084219   -0.129692  
     11.703931  9.051086  9.568913    -0.084821   -0.132040    0.057957  
     11.607221 10.835331  9.554054     0.327266   -0.110795   -0.016738  
     11.948288  9.974184 11.078192    -0.002769   -0.156931    0.041733  
 
  26 f  =   12.127325 THz    76.198230 2PiTHz  404.524007 cm-1    50.154603 meV
             X         Y         Z           dx          dy          dz
      9.057277  9.838482  9.149906    -0.071017   -0.203398   -0.289337  
      9.889998  9.863695 10.424024    -0.251929   -0.019172   -0.101228  
     11.378648  9.932383 10.139722    -0.262548    0.196422    0.144269  
      9.580829 11.022020 11.224233     0.555278   -0.039907    0.234388  
      7.980878  9.782570  9.377415    -0.036084   -0.144009   -0.184706  
      9.312874  8.964071  8.531966     0.118724   -0.082154    0.005511  
      9.242000 10.749945  8.561626    -0.031826   -0.093817   -0.141635  
      8.619225 11.036874 11.375700     0.143229    0.223263    0.065093  
      9.678830  8.949360 11.014250    -0.109636   -0.008771   -0.047367  
     11.703931  9.051086  9.568913     0.073496    0.102998    0.058625  
     11.607221 10.835331  9.554054    -0.129339    0.099699    0.086707  
     11.948288  9.974184 11.078192    -0.170614    0.121578    0.096061  
 
  27 f  =   10.589835 THz    66.537893 2PiTHz  353.238850 cm-1    43.796051 meV
             X         Y         Z           dx          dy          dz
      9.057277  9.838482  9.149906    -0.413127    0.077831    0.057168  
      9.889998  9.863695 10.424024     0.106617   -0.095834   -0.259574  
     11.378648  9.932383 10.139722     0.234023    0.099587    0.344897  
      9.580829 11.022020 11.224233     0.130645   -0.119457   -0.306752  
      7.980878  9.782570  9.377415    -0.079004    0.084248    0.229666  
      9.312874  8.964071  8.531966    -0.304233    0.014856   -0.049205  
      9.242000 10.749945  8.561626    -0.190919    0.028956    0.005151  
      8.619225 11.036874 11.375700     0.046995   -0.084160    0.019830  
      9.678830  8.949360 11.014250     0.035287   -0.035619   -0.082362  
     11.703931  9.051086  9.568913     0.239752    0.038852    0.183113  
     11.607221 10.835331  9.554054     0.131734    0.042792    0.147720  
     11.948288  9.974184 11.078192    -0.131968    0.078833    0.219676  
 
  28 f  =    8.230422 THz    51.713265 2PiTHz  274.537311 cm-1    34.038301 meV
             X         Y         Z           dx          dy          dz
      9.057277  9.838482  9.149906    -0.065709   -0.012932    0.111760  
      9.889998  9.863695 10.424024     0.048810   -0.039635    0.014104  
     11.378648  9.932383 10.139722     0.047191    0.023208   -0.002621  
      9.580829 11.022020 11.224233     0.014585   -0.094620    0.055178  
      7.980878  9.782570  9.377415    -0.006877   -0.116128    0.073055  
      9.312874  8.964071  8.531966     0.023506    0.054222   -0.029929  
      9.242000 10.749945  8.561626    -0.119554    0.045059    0.074373  
      8.619225 11.036874 11.375700    -0.106694    0.446653   -0.732720  
      9.678830  8.949360 11.014250     0.020556   -0.021410   -0.005540  
     11.703931  9.051086  9.568913    -0.016896    0.125430   -0.201916  
     11.607221 10.835331  9.554054     0.023811    0.138185    0.207248  
     11.948288  9.974184 11.078192     0.032418   -0.222820   -0.001190  
 
  29 f  =    7.766181 THz    48.796354 2PiTHz  259.051905 cm-1    32.118354 meV
             X         Y         Z           dx          dy          dz
      9.057277  9.838482  9.149906    -0.032554   -0.059442    0.011543  
      9.889998  9.863695 10.424024    -0.020533    0.026042    0.013341  
     11.378648  9.932383 10.139722    -0.004791   -0.121091    0.075577  
      9.580829 11.022020 11.224233     0.044387    0.207760   -0.194938  
      7.980878  9.782570  9.377415     0.014074   -0.488727   -0.008845  
      9.312874  8.964071  8.531966     0.335431    0.243255   -0.222691  
      9.242000 10.749945  8.561626    -0.360362    0.206906    0.240429  
      8.619225 11.036874 11.375700     0.057092   -0.120853    0.259496  
      9.678830  8.949360 11.014250    -0.019858    0.034010    0.037678  
     11.703931  9.051086  9.568913    -0.056988    0.043383   -0.129584  
     11.607221 10.835331  9.554054     0.056392    0.050333    0.175641  
     11.948288  9.974184 11.078192     0.001926   -0.228288    0.028273  
 
  30 f  =    6.356569 THz    39.939503 2PiTHz  212.032322 cm-1    26.288667 meV
             X         Y         Z           dx          dy          dz
      9.057277  9.838482  9.149906     0.014367   -0.110937   -0.015492  
      9.889998  9.863695 10.424024    -0.013808    0.020338    0.006038  
     11.378648  9.932383 10.139722    -0.010817    0.040430    0.033117  
      9.580829 11.022020 11.224233     0.000842    0.105183   -0.103235  
      7.980878  9.782570  9.377415    -0.007283    0.220307    0.001311  
      9.312874  8.964071  8.531966    -0.165612   -0.191069    0.150053  
      9.242000 10.749945  8.561626     0.179497   -0.169496   -0.161734  
      8.619225 11.036874 11.375700     0.038261   -0.131973    0.230695  
      9.678830  8.949360 11.014250    -0.009604    0.017504    0.016840  
     11.703931  9.051086  9.568913    -0.080379    0.251278   -0.403593  
     11.607221 10.835331  9.554054     0.029694    0.261936    0.408386  
     11.948288  9.974184 11.078192     0.035824   -0.443879    0.005822  
 
  31 f  =    1.755687 THz    11.031305 2PiTHz   58.563404 cm-1     7.260939 meV
             X         Y         Z           dx          dy          dz
      9.057277  9.838482  9.149906     0.057027   -0.233967   -0.029712  
      9.889998  9.863695 10.424024    -0.039428    0.164828    0.024506  
     11.378648  9.932383 10.139722    -0.009281   -0.143252    0.105877  
      9.580829 11.022020 11.224233     0.057809    0.593719   -0.516579  
      7.980878  9.782570  9.377415     0.008495    0.007495   -0.027490  
      9.312874  8.964071  8.531966    -0.007641   -0.153404    0.102991  
      9.242000 10.749945  8.561626     0.070782   -0.147206   -0.115192  
      8.619225 11.036874 11.375700     0.006754    0.223346   -0.185608  
      9.678830  8.949360 11.014250    -0.058700    0.122436    0.105911  
     11.703931  9.051086  9.568913    -0.021857   -0.126336    0.150595  
     11.607221 10.835331  9.554054     0.042922   -0.124649   -0.080160  
     11.948288  9.974184 11.078192    -0.022058    0.058118    0.037880  
 
  32 f  =    1.353444 THz     8.503936 2PiTHz   45.146015 cm-1     5.597394 meV
             X         Y         Z           dx          dy          dz
      9.057277  9.838482  9.149906     0.137529   -0.347596   -0.275753  
      9.889998  9.863695 10.424024    -0.119730   -0.155832   -0.110692  
     11.378648  9.932383 10.139722    -0.077935    0.172788    0.191503  
      9.580829 11.022020 11.224233    -0.601079   -0.250323   -0.203619  
      7.980878  9.782570  9.377415     0.030061   -0.165750   -0.140803  
      9.312874  8.964071  8.531966     0.128789   -0.087382   -0.061294  
      9.242000 10.749945  8.561626     0.016903   -0.091648   -0.073164  
      8.619225 11.036874 11.375700    -0.160008   -0.120620   -0.106794  
      9.678830  8.949360 11.014250    -0.011375   -0.057238   -0.042523  
     11.703931  9.051086  9.568913     0.068163    0.071216    0.073862  
     11.607221 10.835331  9.554054    -0.046544    0.064902    0.069154  
     11.948288  9.974184 11.078192    -0.081328    0.086181    0.089239  
 
  33 f  =    0.807765 THz     5.075340 2PiTHz   26.944153 cm-1     3.340650 meV
             X         Y         Z           dx          dy          dz
      9.057277  9.838482  9.149906     0.135271    0.122537    0.042341  
      9.889998  9.863695 10.424024    -0.141715   -0.124080    0.228588  
     11.378648  9.932383 10.139722    -0.060731   -0.477016    0.565482  
      9.580829 11.022020 11.224233    -0.042678   -0.085657    0.227538  
      7.980878  9.782570  9.377415     0.020827    0.104663   -0.056240  
      9.312874  8.964071  8.531966     0.019167    0.025057    0.018583  
      9.242000 10.749945  8.561626     0.137897    0.029908    0.034875  
      8.619225 11.036874 11.375700    -0.019152    0.043857   -0.002950  
      9.678830  8.949360 11.014250    -0.143451   -0.026679    0.043450  
     11.703931  9.051086  9.568913    -0.042602   -0.154332    0.174365  
     11.607221 10.835331  9.554054     0.084835   -0.146966    0.189212  
     11.948288  9.974184 11.078192    -0.076591   -0.188774    0.201490  
 
  34 f/i=    0.137694 THz     0.865157 2PiTHz    4.592975 cm-1     0.569457 meV
             X         Y         Z           dx          dy          dz
      9.057277  9.838482  9.149906     0.343141   -0.264949   -0.137149  
      9.889998  9.863695 10.424024     0.328111   -0.264123   -0.128063  
     11.378648  9.932383 10.139722     0.332211   -0.287909   -0.116119  
      9.580829 11.022020 11.224233     0.377667   -0.296428   -0.158566  
      7.980878  9.782570  9.377415     0.097981   -0.072258   -0.043581  
      9.312874  8.964071  8.531966     0.098703   -0.079204   -0.035979  
      9.242000 10.749945  8.561626     0.104729   -0.078990   -0.041578  
      8.619225 11.036874 11.375700     0.094152   -0.073232   -0.041854  
      9.678830  8.949360 11.014250     0.090471   -0.074790   -0.036061  
     11.703931  9.051086  9.568913     0.092377   -0.085712   -0.031477  
     11.607221 10.835331  9.554054     0.102189   -0.085386   -0.034422  
     11.948288  9.974184 11.078192     0.094410   -0.085199   -0.032525  
 
  35 f/i=    0.821366 THz     5.160796 2PiTHz   27.397825 cm-1     3.396899 meV
             X         Y         Z           dx          dy          dz
      9.057277  9.838482  9.149906     0.400874    0.061172    0.115211  
      9.889998  9.863695 10.424024     0.287759    0.203835    0.187094  
     11.378648  9.932383 10.139722     0.302266    0.449437    0.324655  
      9.580829 11.022020 11.224233     0.035314    0.182351    0.176131  
      7.980878  9.782570  9.377415     0.112468   -0.030081    0.006864  
      9.312874  8.964071  8.531966     0.170341    0.027072    0.042279  
      9.242000 10.749945  8.561626     0.089176    0.024109    0.034939  
      8.619225 11.036874 11.375700     0.004607   -0.000262    0.021834  
      9.678830  8.949360 11.014250     0.111082    0.049759    0.050023  
     11.703931  9.051086  9.568913     0.144970    0.145766    0.101674  
     11.607221 10.835331  9.554054     0.059654    0.140993    0.100372  
     11.948288  9.974184 11.078192     0.059503    0.156031    0.109265  
 
  36 f/i=    1.058400 THz     6.650123 2PiTHz   35.304421 cm-1     4.377192 meV
             X         Y         Z           dx          dy          dz
      9.057277  9.838482  9.149906     0.198177    0.542065   -0.484048  
      9.889998  9.863695 10.424024    -0.032467    0.167611   -0.325151  
     11.378648  9.932383 10.139722     0.030813    0.000196   -0.035446  
      9.580829 11.022020 11.224233    -0.002892    0.065638   -0.175677  
      7.980878  9.782570  9.377415     0.043237    0.181232   -0.198821  
      9.312874  8.964071  8.531966     0.057346    0.183881   -0.178344  
      9.242000 10.749945  8.561626     0.121869    0.185077   -0.074888  
      8.619225 11.036874 11.375700    -0.007998    0.049739   -0.093231  
      9.678830  8.949360 11.014250    -0.080353    0.024152   -0.156725  
     11.703931  9.051086  9.568913     0.001783    0.017804   -0.041653  
     11.607221 10.835331  9.554054     0.079280    0.022822    0.052640  
     11.948288  9.974184 11.078192    -0.040295   -0.076466    0.023062  
 
 Finite differences POTIM=  2.000000000000000E-002
  LATTYP: Found a simple cubic cell.
 ALAT       =    20.0000000000
  
  Lattice vectors:
  
 A1 = (  20.0000000000,   0.0000000000,   0.0000000000)
 A2 = (   0.0000000000,  20.0000000000,   0.0000000000)
 A3 = (   0.0000000000,   0.0000000000,  20.0000000000)


Analysis of symmetry for initial positions (statically):
=====================================================================
 Subroutine PRICEL returns:
 Original cell was already a primitive cell.
 

 Routine SETGRP: Setting up the symmetry group for a 
 simple cubic supercell.


 Subroutine GETGRP returns: Found  1 space group operations
 (whereof  1 operations were pure point group operations)
 out of a pool of 48 trial point group operations.


The static configuration has the point symmetry C_1 .


Analysis of symmetry for dynamics (positions and initial velocities):
=====================================================================
 Subroutine PRICEL returns:
 Original cell was already a primitive cell.
 

 Routine SETGRP: Setting up the symmetry group for a 
 simple cubic supercell.


 Subroutine GETGRP returns: Found  1 space group operations
 (whereof  1 operations were pure point group operations)
 out of a pool of 48 trial point group operations.


The dynamic configuration has the point symmetry C_1 .
 
 KPOINTS:  Automatic mesh                         

Automatic generation of k-mesh.
Space group operators:
 irot       det(A)        alpha          n_x          n_y          n_z        tau_x        tau_y        tau_z
    1     1.000000     0.000000     1.000000     0.000000     0.000000     0.000000     0.000000     0.000000
 
 Subroutine IBZKPT returns following result:
 ===========================================
 
 Found      1 irreducible k-points:
 
 Following reciprocal coordinates:
            Coordinates               Weight
  0.000000  0.000000  0.000000      1.000000
 
 Following cartesian coordinates:
            Coordinates               Weight
  0.000000  0.000000  0.000000      1.000000
 
     LOOP+:  cpu time   38.09: real time   38.09
    4ORBIT:  cpu time    0.00: real time    0.00

 total amount of memory used by VASP on root node   173904. kBytes
========================================================================

   base      :      30000. kBytes
   nonlr-proj:        917. kBytes
   fftplans  :      36243. kBytes
   grid      :      99737. kBytes
   one-center:         36. kBytes
   wavefun   :       6971. kBytes
 
  
  
 General timing and accounting informations for this job:
 ========================================================
  
                  Total CPU time used (sec):     2896.716
                            User time (sec):     2841.540
                          System time (sec):       55.176
                         Elapsed time (sec):     2898.059
  
                   Maximum memory used (kb):      272024.
                   Average memory used (kb):           0.
  
                          Minor page faults:     30187539
                          Major page faults:            0
                 Voluntary context switches:          421
