 vasp.5.3.5 31Mar14 (build Jan 31 2018 16:04:57) complex                        
  
 executed on             LinuxIFC date 2019.01.07  15:09:26
 running on    8 total cores
 distrk:  each k-point on    8 cores,    1 groups
 distr:  one band on NCORES_PER_BAND=   1 cores,    8 groups


--------------------------------------------------------------------------------------------------------


 INCAR:
 POTCAR:    PAW_PBE Co 02Aug2007                  
 POTCAR:    PAW_PBE C 08Apr2002                   
 POTCAR:    PAW_PBE O 08Apr2002                   
 POTCAR:    PAW_PBE H 15Jun2001                   

 ----------------------------------------------------------------------------- 
|                                                                             |
|           W    W    AA    RRRRR   N    N  II  N    N   GGGG   !!!           |
|           W    W   A  A   R    R  NN   N  II  NN   N  G    G  !!!           |
|           W    W  A    A  R    R  N N  N  II  N N  N  G       !!!           |
|           W WW W  AAAAAA  RRRRR   N  N N  II  N  N N  G  GGG   !            |
|           WW  WW  A    A  R   R   N   NN  II  N   NN  G    G                |
|           W    W  A    A  R    R  N    N  II  N    N   GGGG   !!!           |
|                                                                             |
|      For optimal performance we recommend to set                            |
|        NCORE= 4 - approx SQRT( number of cores)                             |
|      NCORE specifies how many cores store one orbital (NPAR=cpu/NCORE).     |
|      This setting can  greatly improve the performance of VASP for DFT.     |
|      The default, NPAR=number of cores might be grossly inefficient         |
|      on modern multi-core architectures or massively parallel machines.     |
|      Do your own testing !!!!                                               |
|      Unfortunately you need to use the default for GW and RPA calculations. |
|      (for HF NCORE is supported but not extensively tested yet)             |
|                                                                             |
 ----------------------------------------------------------------------------- 

 POTCAR:    PAW_PBE Co 02Aug2007                  
   VRHFIN =Co: d8 s1                                                            
   LEXCH  = PE                                                                  
   EATOM  =   813.3670 eV,   59.7808 Ry                                         
                                                                                
   TITEL  = PAW_PBE Co 02Aug2007                                                
   LULTRA =        F    use ultrasoft PP ?                                      
   IUNSCR =        1    unscreen: 0-lin 1-nonlin 2-no                           
   RPACOR =    2.000    partial core radius                                     
   POMASS =   58.933; ZVAL   =    9.000    mass and valenz                      
   RCORE  =    2.300    outmost cutoff radius                                   
   RWIGS  =    2.460; RWIGS  =    1.302    wigner-seitz radius (au A)           
   ENMAX  =  267.968; ENMIN  =  200.976 eV                                      
   RCLOC  =    1.203    cutoff for local pot                                    
   LCOR   =        T    correct aug charges                                     
   LPAW   =        T    paw PP                                                  
   EAUG   =  477.818                                                            
   DEXC   =    0.000                                                            
   RMAX   =    2.360    core radius for proj-oper                               
   RAUG   =    1.300    factor for augmentation sphere                          
   RDEP   =    2.393    radius for radial grids                                 
   RDEPT  =    1.864    core radius for aug-charge                              
                                                                                
   Atomic configuration                                                         
    9 entries                                                                   
     n  l   j            E        occ.                                          
     1  0  0.50     -7587.6674   2.0000                                         
     2  0  0.50      -893.6084   2.0000                                         
     2  1  1.50      -764.5805   6.0000                                         
     3  0  0.50       -97.5973   2.0000                                         
     3  1  1.50       -60.9648   6.0000                                         
     3  2  2.50        -4.2382   8.0000                                         
     4  0  0.50        -4.3746   1.0000                                         
     4  1  1.50        -4.0817   0.0000                                         
     4  3  2.50        -1.3606   0.0000                                         
   Description                                                                  
     l       E           TYP  RCUT    TYP  RCUT                                 
     2     -4.2382362     23  2.300                                             
     2     -5.5988188     23  2.300                                             
     0     -4.3745797     23  2.300                                             
     0      5.7660125     23  2.300                                             
     1     -2.7211652     23  2.300                                             
     1     16.9860234     23  2.300                                             
  local pseudopotential read in
  partial core-charges read in
  partial kinetic energy density read in
  atomic valenz-charges read in
  non local Contribution for L=           2  read in
    real space projection operators read in
  non local Contribution for L=           2  read in
    real space projection operators read in
  non local Contribution for L=           0  read in
    real space projection operators read in
  non local Contribution for L=           0  read in
    real space projection operators read in
  non local Contribution for L=           1  read in
    real space projection operators read in
  non local Contribution for L=           1  read in
    real space projection operators read in
    PAW grid and wavefunctions read in
 
   number of l-projection  operators is LMAX  =           6
   number of lm-projection operators is LMMAX =          18
 
 POTCAR:    PAW_PBE C 08Apr2002                   
   VRHFIN =C: s2p2                                                              
   LEXCH  = PE                                                                  
   EATOM  =   147.1560 eV,   10.8157 Ry                                         
                                                                                
   TITEL  = PAW_PBE C 08Apr2002                                                 
   LULTRA =        F    use ultrasoft PP ?                                      
   IUNSCR =        1    unscreen: 0-lin 1-nonlin 2-no                           
   RPACOR =    1.200    partial core radius                                     
   POMASS =   12.011; ZVAL   =    4.000    mass and valenz                      
   RCORE  =    1.500    outmost cutoff radius                                   
   RWIGS  =    1.630; RWIGS  =    0.863    wigner-seitz radius (au A)           
   ENMAX  =  400.000; ENMIN  =  300.000 eV                                      
   ICORE  =        2    local potential                                         
   LCOR   =        T    correct aug charges                                     
   LPAW   =        T    paw PP                                                  
   EAUG   =  644.873                                                            
   DEXC   =    0.000                                                            
   RMAX   =    1.529    core radius for proj-oper                               
   RAUG   =    1.300    factor for augmentation sphere                          
   RDEP   =    1.501    radius for radial grids                                 
   RDEPT  =    1.300    core radius for aug-charge                              
                                                                                
   Atomic configuration                                                         
    4 entries                                                                   
     n  l   j            E        occ.                                          
     1  0  0.50      -273.3789   2.0000                                         
     2  0  0.50       -13.7508   2.0000                                         
     2  1  0.50        -5.2854   2.0000                                         
     3  2  1.50        -5.4423   0.0000                                         
   Description                                                                  
     l       E           TYP  RCUT    TYP  RCUT                                 
     0    -13.7508458     23  1.200                                             
     0     -8.2022199     23  1.200                                             
     1     -5.2854383     23  1.500                                             
     1     34.0145650     23  1.500                                             
     2     -5.4423304      7  1.500                                             
  local pseudopotential read in
  partial core-charges read in
  partial kinetic energy density read in
  atomic valenz-charges read in
  non local Contribution for L=           0  read in
    real space projection operators read in
  non local Contribution for L=           0  read in
    real space projection operators read in
  non local Contribution for L=           1  read in
    real space projection operators read in
  non local Contribution for L=           1  read in
    real space projection operators read in
    PAW grid and wavefunctions read in
 
   number of l-projection  operators is LMAX  =           4
   number of lm-projection operators is LMMAX =           8
 
 POTCAR:    PAW_PBE O 08Apr2002                   
   VRHFIN =O: s2p4                                                              
   LEXCH  = PE                                                                  
   EATOM  =   432.3788 eV,   31.7789 Ry                                         
                                                                                
   TITEL  = PAW_PBE O 08Apr2002                                                 
   LULTRA =        F    use ultrasoft PP ?                                      
   IUNSCR =        1    unscreen: 0-lin 1-nonlin 2-no                           
   RPACOR =    1.200    partial core radius                                     
   POMASS =   16.000; ZVAL   =    6.000    mass and valenz                      
   RCORE  =    1.520    outmost cutoff radius                                   
   RWIGS  =    1.550; RWIGS  =    0.820    wigner-seitz radius (au A)           
   ENMAX  =  400.000; ENMIN  =  300.000 eV                                      
   ICORE  =        2    local potential                                         
   LCOR   =        T    correct aug charges                                     
   LPAW   =        T    paw PP                                                  
   EAUG   =  605.392                                                            
   DEXC   =    0.000                                                            
   RMAX   =    1.553    core radius for proj-oper                               
   RAUG   =    1.300    factor for augmentation sphere                          
   RDEP   =    1.550    radius for radial grids                                 
   RDEPT  =    1.329    core radius for aug-charge                              
                                                                                
   Atomic configuration                                                         
    4 entries                                                                   
     n  l   j            E        occ.                                          
     1  0  0.50      -514.6923   2.0000                                         
     2  0  0.50       -23.9615   2.0000                                         
     2  1  0.50        -9.0305   4.0000                                         
     3  2  1.50        -9.5241   0.0000                                         
   Description                                                                  
     l       E           TYP  RCUT    TYP  RCUT                                 
     0    -23.9615318     23  1.200                                             
     0     -9.5240782     23  1.200                                             
     1     -9.0304911     23  1.520                                             
     1      8.1634956     23  1.520                                             
     2     -9.5240782      7  1.500                                             
  local pseudopotential read in
  partial core-charges read in
  partial kinetic energy density read in
  kinetic energy density of atom read in
  atomic valenz-charges read in
  non local Contribution for L=           0  read in
    real space projection operators read in
  non local Contribution for L=           0  read in
    real space projection operators read in
  non local Contribution for L=           1  read in
    real space projection operators read in
  non local Contribution for L=           1  read in
    real space projection operators read in
    PAW grid and wavefunctions read in
 
   number of l-projection  operators is LMAX  =           4
   number of lm-projection operators is LMMAX =           8
 
 POTCAR:    PAW_PBE H 15Jun2001                   
   VRHFIN =H: ultrasoft test                                                    
   LEXCH  = PE                                                                  
   EATOM  =    12.4884 eV,    0.9179 Ry                                         
                                                                                
   TITEL  = PAW_PBE H 15Jun2001                                                 
   LULTRA =        F    use ultrasoft PP ?                                      
   IUNSCR =        0    unscreen: 0-lin 1-nonlin 2-no                           
   RPACOR =    0.000    partial core radius                                     
   POMASS =    1.000; ZVAL   =    1.000    mass and valenz                      
   RCORE  =    1.100    outmost cutoff radius                                   
   RWIGS  =    0.700; RWIGS  =    0.370    wigner-seitz radius (au A)           
   ENMAX  =  250.000; ENMIN  =  200.000 eV                                      
   RCLOC  =    0.701    cutoff for local pot                                    
   LCOR   =        T    correct aug charges                                     
   LPAW   =        T    paw PP                                                  
   EAUG   =  400.000                                                            
   RMAX   =    1.123    core radius for proj-oper                               
   RAUG   =    1.200    factor for augmentation sphere                          
   RDEP   =    1.112    radius for radial grids                                 
   RDEPT  =    0.926    core radius for aug-charge                              
                                                                                
   Atomic configuration                                                         
    2 entries                                                                   
     n  l   j            E        occ.                                          
     1  0  0.50        -6.4927   1.0000                                         
     2  1  0.50        -3.4015   0.0000                                         
   Description                                                                  
     l       E           TYP  RCUT    TYP  RCUT                                 
     0     -6.4927494     23  1.100                                             
     0      6.8029130     23  1.100                                             
     1     -4.0817478     23  1.100                                             
  local pseudopotential read in
  atomic valenz-charges read in
  non local Contribution for L=           0  read in
    real space projection operators read in
  non local Contribution for L=           0  read in
    real space projection operators read in
  non local Contribution for L=           1  read in
    real space projection operators read in
    PAW grid and wavefunctions read in
 
   number of l-projection  operators is LMAX  =           3
   number of lm-projection operators is LMMAX =           5
 
 Optimization of the real space projectors (new method)

 maximal supplied QI-value         = 16.25
 optimisation between [QCUT,QGAM] = [ 10.24, 20.48] = [ 29.35,117.42] Ry 
 Optimized for a Real-space Cutoff    1.34 Angstroem

   l    n(q)    QCUT    max X(q) W(low)/X(q) W(high)/X(q)  e(spline) 
   2      7    10.239    65.824    0.41E-03    0.10E-02    0.11E-06
   2      7    10.239    61.429    0.41E-03    0.10E-02    0.11E-06
   0      8    10.239    56.174    0.42E-03    0.17E-03    0.96E-07
   0      8    10.239    31.263    0.38E-03    0.16E-03    0.87E-07
   1      8    10.239    19.828    0.20E-03    0.56E-03    0.13E-06
   1      8    10.239    15.139    0.15E-03    0.46E-03    0.11E-06
 Optimization of the real space projectors (new method)

 maximal supplied QI-value         = 25.13
 optimisation between [QCUT,QGAM] = [ 10.05, 20.36] = [ 28.30,116.06] Ry 
 Optimized for a Real-space Cutoff    1.30 Angstroem

   l    n(q)    QCUT    max X(q) W(low)/X(q) W(high)/X(q)  e(spline) 
   0      8    10.053   115.676    0.49E-03    0.72E-03    0.18E-06
   0      8    10.053    87.132    0.49E-03    0.71E-03    0.18E-06
   1      7    10.053     4.429    0.32E-03    0.31E-03    0.18E-06
   1      7    10.053     2.733    0.23E-03    0.19E-03    0.20E-06
 Optimization of the real space projectors (new method)

 maximal supplied QI-value         = 24.76
 optimisation between [QCUT,QGAM] = [ 10.15, 20.30] = [ 28.85,115.39] Ry 
 Optimized for a Real-space Cutoff    1.38 Angstroem

   l    n(q)    QCUT    max X(q) W(low)/X(q) W(high)/X(q)  e(spline) 
   0      8    10.150    20.381    0.22E-03    0.32E-03    0.29E-06
   0      8    10.150    15.268    0.23E-03    0.35E-03    0.30E-06
   1      8    10.150     5.964    0.46E-03    0.53E-03    0.21E-06
   1      8    10.150     5.382    0.38E-03    0.45E-03    0.19E-06
 Optimization of the real space projectors (new method)

 maximal supplied QI-value         = 34.20
 optimisation between [QCUT,QGAM] = [  9.92, 20.18] = [ 27.55,114.04] Ry 
 Optimized for a Real-space Cutoff    1.26 Angstroem

   l    n(q)    QCUT    max X(q) W(low)/X(q) W(high)/X(q)  e(spline) 
   0      8     9.919    19.460    0.50E-03    0.23E-03    0.29E-06
   0      8     9.919    12.209    0.48E-03    0.23E-03    0.28E-06
   1      7     9.919     4.655    0.17E-03    0.75E-03    0.30E-06
  PAW_PBE Co 02Aug2007                  :
 energy of atom  1       EATOM= -813.3670
 kinetic energy error for atom=    0.0093 (will be added to EATOM!!)
  PAW_PBE C 08Apr2002                   :
 energy of atom  2       EATOM= -147.1560
 kinetic energy error for atom=    0.0288 (will be added to EATOM!!)
  PAW_PBE O 08Apr2002                   :
 energy of atom  3       EATOM= -432.3788
 kinetic energy error for atom=    0.1156 (will be added to EATOM!!)
  PAW_PBE H 15Jun2001                   :
 energy of atom  4       EATOM=  -12.4884
 kinetic energy error for atom=    0.0098 (will be added to EATOM!!)
 
 
 POSCAR: Co C O H                                
  positions in direct lattice
  velocities in cartesian coordinates
 exchange correlation table for  LEXCH =        8
   RHO(1)=    0.500       N(1)  =     2000
   RHO(2)=  100.500       N(2)  =     4000

 VTST: version 3.1, (03/28/14)

 CHAIN: initializing optimizer
 
 OPT: Using Conjugate-Gradient optimizer
 OPT: CG, Init
 OPT: CG, FDSTEP      0.005000
 OPT: CG, MAXMOVE      0.200000
 
 CHAIN: Read ICHAIN            2
 
 POSCAR: Co C O H                                
  positions in direct lattice
  velocities in cartesian coordinates
 CHAIN: Running the Dimer method

 Dimer: -----------------
 Dimer: Input Parameters
 Dimer:   Seed      0
 Dimer: RotMax      1
 Dimer:     dR      0.005000
 Dimer:  FNMax      1.000000
 Dimer:  FNMin      0.010000
 Dimer: -----------------
 


--------------------------------------------------------------------------------------------------------


 ion  position               nearest neighbor table
   1  0.222  0.111  0.000-   4 2.47   5 2.47  13 2.47   3 2.47   2 2.47  10 2.47  11 2.47   9 2.47
                             8 2.47
   2  0.556  0.111  0.000-   5 2.47   6 2.47  14 2.47   3 2.47   1 2.47  12 2.47  11 2.47   9 2.47
                             7 2.47
   3  0.889  0.111  0.000-   4 2.47   6 2.47  15 2.47   1 2.47   2 2.47  10 2.47  12 2.47   8 2.47
                             7 2.47
   4  0.222  0.444  0.000-   9 2.47   7 2.47   3 2.47   1 2.47   6 2.47   5 2.47  16 2.47  15 2.47
                            13 2.47
   5  0.556  0.444  0.000-   7 2.47   8 2.47   1 2.47   2 2.47   4 2.47   6 2.47  17 2.47  14 2.47
                            13 2.47
   6  0.889  0.444  0.000-   9 2.47   8 2.47   2 2.47   3 2.47   4 2.47   5 2.47  18 2.47  15 2.47
                            14 2.47
   7  0.556  0.778  0.000-   5 2.47   4 2.47  16 2.47  17 2.47   8 2.47   9 2.47  12 2.47   3 2.47
                             2 2.47
   8  0.889  0.778  0.000-   5 2.47   6 2.47  17 2.47  18 2.47   7 2.47   9 2.47  10 2.47   3 2.47
                             1 2.47
   9  0.222  0.778  0.000-   4 2.47   6 2.47  18 2.47  16 2.47   7 2.47   8 2.47  11 2.47   2 2.47
                             1 2.47
  10  0.000  0.000  0.082-  13 2.47  15 2.47  11 2.47  12 2.47  17 2.47  18 2.47   1 2.47   3 2.47
                             8 2.47  26 2.47  21 2.49  19 2.49
  11  0.333  0.000  0.082-  14 2.47  13 2.47  12 2.47  10 2.47  16 2.47  18 2.47   2 2.47   1 2.47
                             9 2.47  20 2.48  19 2.49  27 2.50
  12  0.667  0.000  0.082-  14 2.47  15 2.47  11 2.47  10 2.47  16 2.47  17 2.47   2 2.47   3 2.47
                             7 2.47  20 2.48  21 2.49  25 2.50
  13  0.333  0.333  0.082-  10 2.47  11 2.47   1 2.47  14 2.47  15 2.47  16 2.47  17 2.47   5 2.47
                             4 2.47  23 2.48  19 2.49  22 2.50
  14  0.667  0.333  0.082-  11 2.47  12 2.47   2 2.47  13 2.47  15 2.47  17 2.47  18 2.47   5 2.47
                             6 2.47  24 2.48  20 2.48  23 2.48
  15  1.000  0.333  0.082-  10 2.47  12 2.47   3 2.47  13 2.47  14 2.47  18 2.47  16 2.47   4 2.47
                             6 2.47  24 2.48  21 2.49  22 2.50
  16  0.333  0.667  0.082-   7 2.47   9 2.47  17 2.47  18 2.47  13 2.47  15 2.47   4 2.47  12 2.47
                            11 2.47  25 2.49  27 2.49  22 2.50
  17  0.667  0.667  0.082-   7 2.47   8 2.47  16 2.47  18 2.47  13 2.47  14 2.47   5 2.47  10 2.47
                            12 2.47  23 2.48  26 2.48  25 2.50
  18  1.000  0.667  0.082-   9 2.47   8 2.47  16 2.47  17 2.47  15 2.47  14 2.47   6 2.47  10 2.47
                            11 2.47  24 2.47  26 2.49  27 2.50
  19  0.223  0.112  0.164-  31 2.41  29 2.41  28 2.43  26 2.47  20 2.47  22 2.47  23 2.47  21 2.48
                            27 2.48  13 2.49  11 2.49  10 2.49
  20  0.555  0.111  0.164-  32 2.39  30 2.41  29 2.41  19 2.47  27 2.47  21 2.47  25 2.47  23 2.48
                            24 2.48  11 2.48  14 2.48  12 2.48
  21  0.888  0.111  0.164-  33 2.39  30 2.41  28 2.42  26 2.46  20 2.47  22 2.47  19 2.48  24 2.48
                            25 2.48  12 2.49  15 2.49  10 2.49
  22  0.222  0.445  0.165-  33 2.43  31 2.44  34 2.45  25 2.46  27 2.46  19 2.47  23 2.47  21 2.47
                            24 2.47  16 2.50  15 2.50  13 2.50
  23  0.556  0.446  0.164-  31 2.39  32 2.40  35 2.41  25 2.47  22 2.47  24 2.47  19 2.47  20 2.48
                            17 2.48  26 2.48  13 2.48  14 2.48
  24  0.889  0.446  0.164-  33 2.38  32 2.40  36 2.41  27 2.47  23 2.47  26 2.47  18 2.47  22 2.47
                            20 2.48  21 2.48  14 2.48  15 2.48
  25  0.553  0.777  0.165-  30 2.39  35 2.40  27 2.44  34 2.45  22 2.46  23 2.47  20 2.47  21 2.48
                            26 2.48  16 2.49  12 2.50  17 2.50
  26  0.890  0.780  0.164-  35 2.38  36 2.39  28 2.44  21 2.46  19 2.47  24 2.47  10 2.47  23 2.48
                            27 2.48  25 2.48  17 2.48  18 2.49
  27  0.223  0.777  0.165-  29 2.39  36 2.40  25 2.44  34 2.46  22 2.46  24 2.47  20 2.47  26 2.48
                            19 2.48  16 2.49  11 2.50  18 2.50
  28  0.001  0.004  0.244-  45 1.99  21 2.42  19 2.43  26 2.44  35 2.45  36 2.47  33 2.47  30 2.48
                            31 2.48  29 2.48
  29  0.333  0.998  0.242-  27 2.39  19 2.41  20 2.41  30 2.45  31 2.45  36 2.46  34 2.46  32 2.47
                            28 2.48
  30  0.664  0.998  0.242-  25 2.39  20 2.41  21 2.41  33 2.44  29 2.45  35 2.46  34 2.46  32 2.47
                            28 2.48
  31  0.341  0.332  0.243-  45 1.86  40 2.13  23 2.39  19 2.41  32 2.41  22 2.44  29 2.45  28 2.48
                            35 2.48  34 2.50  33 2.60
  32  0.666  0.332  0.242-  20 2.39  24 2.40  23 2.40  33 2.41  31 2.41  30 2.47  29 2.47  36 2.48
                            35 2.48
  33  0.990  0.331  0.242-  45 1.86  40 2.36  24 2.38  21 2.39  32 2.41  22 2.43  30 2.44  28 2.47
                            36 2.48  34 2.51  31 2.60
  34  0.332  0.665  0.246-  40 2.20  22 2.45  25 2.45  27 2.46  29 2.46  30 2.46  36 2.49  31 2.50
                            35 2.51  33 2.51
  35  0.673  0.671  0.242-  26 2.38  25 2.40  23 2.41  36 2.41  28 2.45  30 2.46  31 2.48  32 2.48
                            34 2.51
  36  0.998  0.669  0.242-  26 2.39  27 2.40  24 2.41  35 2.41  29 2.46  28 2.47  33 2.48  32 2.48
                            34 2.49
  37  0.511  0.643  0.376-  41 1.10  43 1.10  42 1.10  38 1.51
  38  0.301  0.447  0.368-  44 1.10  40 1.46  37 1.51  39 1.52
  39  0.302  0.250  0.384-  48 1.10  47 1.10  46 1.10  38 1.52
  40  0.242  0.436  0.311-  45 1.29  38 1.46  31 2.13  34 2.20  33 2.36
  41  0.506  0.781  0.362-  37 1.10
  42  0.630  0.631  0.352-  37 1.10
  43  0.557  0.662  0.419-  37 1.10
  44  0.180  0.460  0.391-  38 1.10
  45  0.124  0.251  0.292-  40 1.29  31 1.86  33 1.86  28 1.99
  46  0.418  0.235  0.360-  39 1.10
  47  0.342  0.256  0.427-  39 1.10
  48  0.149  0.111  0.377-  39 1.10
 
  LATTYP: Found a hexagonal cell.
 ALAT       =     7.4100015225
 C/A-ratio  =     3.3333326485
  
  Lattice vectors:
  
 A1 = (   7.4100000000,   0.0000000000,   0.0000000000)
 A2 = (  -3.7050000000,   6.4172500001,   0.0000000000)
 A3 = (   0.0000000000,   0.0000000000,  24.7000000000)


Analysis of symmetry for initial positions (statically):
=====================================================================
 Subroutine PRICEL returns:
 Original cell was already a primitive cell.
 

 Routine SETGRP: Setting up the symmetry group for a 
 hexagonal supercell.


 Subroutine GETGRP returns: Found  1 space group operations
 (whereof  1 operations were pure point group operations)
 out of a pool of 24 trial point group operations.


The static configuration has the point symmetry C_1 .


Analysis of symmetry for dynamics (positions and initial velocities):
=====================================================================
 Subroutine PRICEL returns:
 Original cell was already a primitive cell.
 

 Routine SETGRP: Setting up the symmetry group for a 
 hexagonal supercell.


 Subroutine GETGRP returns: Found  1 space group operations
 (whereof  1 operations were pure point group operations)
 out of a pool of 24 trial point group operations.


The dynamic configuration has the point symmetry C_1 .


Analysis of constrained symmetry for selective dynamics:
=====================================================================
 Subroutine PRICEL returns:
 Original cell was already a primitive cell.
 

 Routine SETGRP: Setting up the symmetry group for a 
 hexagonal supercell.


 Subroutine GETGRP returns: Found  1 space group operations
 (whereof  1 operations were pure point group operations)
 out of a pool of 24 trial point group operations.


The constrained configuration has the point symmetry C_1 .


Analysis of magnetic symmetry:
=====================================================================
 Subroutine PRICEL returns:
 Original cell was already a primitive cell.
 

 Subroutine MAGSYM returns: Found  1 space group operations
 (whereof  1 operations were pure point group operations)
 out of a pool of  1 trial space group operations
 (whereof  1 operations were pure point group operations)
 and found also     1 'primitive' translations


The magnetic configuration has the point symmetry C_1 .
 
 
 KPOINTS:  Automatic mesh                         

Automatic generation of k-mesh.
Space group operators:
 irot       det(A)        alpha          n_x          n_y          n_z        tau_x        tau_y        tau_z
    1     1.000000     0.000000     1.000000     0.000000     0.000000     0.000000     0.000000     0.000000
 
 Subroutine IBZKPT returns following result:
 ===========================================
 
 Found      5 irreducible k-points:
 
 Following reciprocal coordinates:
            Coordinates               Weight
  0.000000  0.000000  0.000000      1.000000
  0.333333  0.000000  0.000000      2.000000
  0.000000  0.333333  0.000000      2.000000
  0.333333  0.333333  0.000000      2.000000
 -0.333333  0.333333  0.000000      2.000000
 
 Following cartesian coordinates:
            Coordinates               Weight
  0.000000  0.000000  0.000000      1.000000
  0.111111  0.064150  0.000000      2.000000
  0.000000  0.128300  0.000000      2.000000
  0.111111  0.192450  0.000000      2.000000
 -0.111111  0.064150  0.000000      2.000000
 


--------------------------------------------------------------------------------------------------------




 Dimension of arrays:
   k-points           NKPTS =      5   k-points in BZ     NKDIM =      5   number of bands    NBANDS=    240
   number of dos      NEDOS =    301   number of ions     NIONS =     48
   non local maximal  LDIM  =      6   non local SUM 2l+1 LMDIM =     18
   total plane-waves  NPLWV = 163296
   max r-space proj   IRMAX =   1582   max aug-charges    IRDMAX=   5682
   dimension x,y,z NGX =    36 NGY =   36 NGZ =  126
   dimension x,y,z NGXF=    72 NGYF=   72 NGZF=  252
   support grid    NGXF=    72 NGYF=   72 NGZF=  252
   ions per type =              36   3   1   8
 NGX,Y,Z   is equivalent  to a cutoff of   8.08,  8.08,  8.48 a.u.
 NGXF,Y,Z  is equivalent  to a cutoff of  16.15, 16.15, 16.96 a.u.


 I would recommend the setting:
   dimension x,y,z NGX =    36 NGY =   36 NGZ =  121
 SYSTEM =  unknown system                          
 POSCAR =  Co C O H                                

 Startparameter for this run:
   NWRITE =      2    write-flag & timer
   PREC   = normal    normal or accurate (medium, high low for compatibility)
   ISTART =      0    job   : 0-new  1-cont  2-samecut
   ICHARG =      2    charge: 1-file 2-atom 10-const
   ISPIN  =      2    spin polarized calculation?
   LNONCOLLINEAR =      F non collinear calculations
   LSORBIT =      F    spin-orbit coupling
   INIWAV =      1    electr: 0-lowe 1-rand  2-diag
   LASPH  =      F    aspherical Exc in radial PAW
   METAGGA=      F    non-selfconsistent MetaGGA calc.
   LSOL =      F    Solvation

 Electronic Relaxation 1
   ENCUT  =  400.0 eV  29.40 Ry    5.42 a.u.  12.08 12.08 40.28*2*pi/ulx,y,z
   ENINI  =  400.0     initial cutoff
   ENAUG  =  644.9 eV  augmentation charge cutoff
   NELM   =     60;   NELMIN=  2; NELMDL= -5     # of ELM steps 
   EDIFF  = 0.1E-05   stopping-criterion for ELM
   LREAL  =      T    real-space projection
   NLSPLINE    = F    spline interpolate recip. space projectors
   LCOMPAT=      F    compatible to vasp.4.4
   GGA_COMPAT  = T    GGA compatible to vasp.4.4-vasp.4.6
   LMAXPAW     = -100 max onsite density
   LMAXMIX     =    2 max onsite mixed and CHGCAR
   VOSKOWN=      0    Vosko Wilk Nusair interpolation
   ROPT   =   -0.00050  -0.00050  -0.00050  -0.00050
 Ionic relaxation
   EDIFFG = -.1E-01   stopping-criterion for IOM
   NSW    =    500    number of steps for IOM
   NBLOCK =      1;   KBLOCK =    500    inner block; outer block 
   IBRION =      3    ionic relax: 0-MD 1-quasi-New 2-CG
   NFREE  =      0    steps in history (QN), initial steepest desc. (CG)
   ISIF   =      2    stress and relaxation
   IWAVPR =     11    prediction:  0-non 1-charg 2-wave 3-comb
   ISYM   =      2    0-nonsym 1-usesym 2-fastsym
   LCORR  =      T    Harris-Foulkes like correction to forces

   POTIM  = 0.0000    time-step for ionic-motion
   TEIN   =    0.0    initial temperature
   TEBEG  =    0.0;   TEEND  =   0.0 temperature during run
   SMASS  =  -3.00    Nose mass-parameter (am)
   estimated Nose-frequenzy (Omega)   =  0.10E-29 period in steps =  0.00 mass=  -0.125E-26a.u.
   SCALEE = 1.0000    scale energy and forces
   NPACO  =    256;   APACO  = 16.0  distance and # of slots for P.C.
   PSTRESS=    0.0 pullay stress

  Mass of Ions in am
   POMASS =  58.93 12.01 16.00  1.00
  Ionic Valenz
   ZVAL   =   9.00  4.00  6.00  1.00
  Atomic Wigner-Seitz radii
   RWIGS  =  -1.00 -1.00 -1.00 -1.00
  virtual crystal weights 
   VCA    =   1.00  1.00  1.00  1.00
   NELECT =     350.0000    total number of electrons
   NUPDOWN=      -1.0000    fix difference up-down

 DOS related values:
   EMIN   =  10.00;   EMAX   =-10.00  energy-range for DOS
   EFERMI =   0.00
   ISMEAR =     2;   SIGMA  =   0.20  broadening in eV -4-tet -1-fermi 0-gaus

 Electronic relaxation 2 (details)
   IALGO  =     38    algorithm
   LDIAG  =      T    sub-space diagonalisation (order eigenvalues)
   LSUBROT=      F    optimize rotation matrix (better conditioning)
   TURBO    =      0    0=normal 1=particle mesh
   IRESTART =      0    0=no restart 2=restart with 2 vectors
   NREBOOT  =      0    no. of reboots
   NMIN     =      0    reboot dimension
   EREF     =   0.00    reference energy to select bands
   IMIX   =      4    mixing-type and parameters
     AMIX     =   0.40;   BMIX     =  1.00
     AMIX_MAG =   1.60;   BMIX_MAG =  1.00
     AMIN     =   0.10
     WC   =   100.;   INIMIX=   1;  MIXPRE=   1;  MAXMIX= -45

 Intra band minimization:
   WEIMIN = 0.0010     energy-eigenvalue tresh-hold
   EBREAK =  0.10E-08  absolut break condition
   DEPER  =   0.30     relativ break condition  

   TIME   =   0.40     timestep for ELM

  volume/ion in A,a.u.               =      24.47       165.13
  Fermi-wavevector in a.u.,A,eV,Ry     =   1.093477  2.066371 16.268363  1.195691
  Thomas-Fermi vector in A             =   2.229763
 
 Write flags
   LWAVE  =      F    write WAVECAR
   LCHARG =      F    write CHGCAR
   LVTOT  =      F    write LOCPOT, total local potential
   LVHAR  =      F    write LOCPOT, Hartree potential only
   LELF   =      F    write electronic localiz. function (ELF)
   LORBIT =      0    0 simple, 1 ext, 2 COOP (PROOUT)


 Dipole corrections
   LMONO  =      F    monopole corrections only (constant potential shift)
   LDIPOL =      F    correct potential (dipole corrections)
   IDIPOL =      3    1-x, 2-y, 3-z, 4-all directions 
   EPSILON=  1.0000000 bulk dielectric constant

 Exchange correlation treatment:
   GGA     =    PE    GGA type
   LEXCH   =     8    internal setting for exchange type
   VOSKOWN=      0    Vosko Wilk Nusair interpolation
   LHFCALC =     F    Hartree Fock is set to
   LHFONE  =     F    Hartree Fock one center treatment
   AEXX    =    0.0000 exact exchange contribution

 Linear response parameters
   LEPSILON=     F    determine dielectric tensor
   LRPA    =     F    only Hartree local field effects (RPA)
   LNABLA  =     F    use nabla operator in PAW spheres
   LVEL    =     F    velocity operator in full k-point grid
   LINTERFAST=   F  fast interpolation
   KINTER  =     0    interpolate to denser k-point grid
   CSHIFT  =0.1000    complex shift for real part using Kramers Kronig
   OMEGAMAX=  -1.0    maximum frequency
   DEG_THRESHOLD= 0.2000000E-02 threshold for treating states as degnerate
   RTIME   =    0.100 relaxation time in fs

 Orbital magnetization related:
   ORBITALMAG=     F  switch on orbital magnetization
   LCHIMAG   =     F  perturbation theory with respect to B field
   DQ        =  0.001000  dq finite difference perturbation B field



--------------------------------------------------------------------------------------------------------


 quickmin algorithm: (dynamic with friction)
   using selective dynamics as specified on POSCAR
 charge density and potential will be updated during run
 spin polarized calculation
 Variant of blocked Davidson
 Davidson routine will perform the subspace rotation
 perform sub-space diagonalisation
    after iterative eigenvector-optimisation
 modified Broyden-mixing scheme, WC =      100.0
 initial mixing is a Kerker type mixing with AMIX =  0.4000 and BMIX =      1.0000
 Hartree-type preconditioning will be used
 using additional bands           65
 real space projection scheme for non local part
 use partial core corrections
 calculate Harris-corrections to forces 
   (improved forces if not selfconsistent)
 use gradient corrections 
 use of overlap-Matrix (Vanderbilt PP)
 Methfessel and Paxton  Order N= 2 SIGMA  =   0.20


--------------------------------------------------------------------------------------------------------


  energy-cutoff  :      400.00
  volume of cell :     1174.53
      direct lattice vectors                 reciprocal lattice vectors
     7.410000000  0.000000000  0.000000000     0.134952767  0.077914995  0.000000000
    -3.705000000  6.417250000  0.000000000     0.000000000  0.155829989  0.000000000
     0.000000000  0.000000000 24.700000000     0.000000000  0.000000000  0.040485830

  length of vectors
     7.410000000  7.410001522 24.700000000     0.155830021  0.155829989  0.040485830


 
 k-points in units of 2pi/SCALE and weight:  Automatic mesh                         
   0.00000000  0.00000000  0.00000000       0.111
   0.11111111  0.06415001  0.00000000       0.222
   0.00000000  0.12830002  0.00000000       0.222
   0.11111111  0.19245004  0.00000000       0.222
  -0.11111111  0.06415001  0.00000000       0.222
 
 k-points in reciprocal lattice and weights:  Automatic mesh                         
   0.00000000  0.00000000  0.00000000       0.111
   0.33333333  0.00000000  0.00000000       0.222
   0.00000000  0.33333333  0.00000000       0.222
   0.33333333  0.33333333  0.00000000       0.222
  -0.33333333  0.33333333  0.00000000       0.222
 
 position of ions in fractional coordinates (direct lattice) 
   0.22222237  0.11111141  0.00000000
   0.55555571  0.11111141  0.00000000
   0.88888904  0.11111141  0.00000000
   0.22222206  0.44444412  0.00000000
   0.55555539  0.44444412  0.00000000
   0.88888872  0.44444412  0.00000000
   0.55555431  0.77777528  0.00000000
   0.88888764  0.77777528  0.00000000
   0.22222097  0.77777528  0.00000000
   0.00000000  0.00000000  0.08164980
   0.33333333  0.00000000  0.08164980
   0.66666667  0.00000000  0.08164980
   0.33333302  0.33333270  0.08164980
   0.66666635  0.33333270  0.08164980
   0.99999968  0.33333270  0.08164980
   0.33333309  0.66666617  0.08164980
   0.66666642  0.66666617  0.08164980
   0.99999975  0.66666617  0.08164980
   0.22276212  0.11214274  0.16424703
   0.55515733  0.11134387  0.16372932
   0.88829992  0.11127793  0.16418327
   0.22219643  0.44476226  0.16469518
   0.55564117  0.44560138  0.16378431
   0.88883477  0.44586084  0.16368438
   0.55292413  0.77696160  0.16467179
   0.88961043  0.77980216  0.16388842
   0.22319892  0.77702842  0.16451402
   0.00066055  0.00358412  0.24370317
   0.33262556  0.99752355  0.24236115
   0.66369213  0.99815836  0.24245582
   0.34096365  0.33249760  0.24302154
   0.66576397  0.33208070  0.24183311
   0.98985307  0.33080994  0.24218709
   0.33202311  0.66494488  0.24566752
   0.67278073  0.67056195  0.24202347
   0.99787049  0.66945990  0.24216077
   0.51054026  0.64254616  0.37574013
   0.30073700  0.44739790  0.36835771
   0.30203433  0.25025786  0.38414701
   0.24183248  0.43566041  0.31139426
   0.50555110  0.78142894  0.36227969
   0.62990321  0.63099660  0.35164695
   0.55728733  0.66182968  0.41859722
   0.17985154  0.46031689  0.39128236
   0.12426079  0.25117343  0.29245204
   0.41802521  0.23506372  0.35966001
   0.34249483  0.25599352  0.42720492
   0.14884147  0.11120977  0.37725079
 
 position of ions in cartesian coordinates  (Angst):
   1.23500000  0.71302972  0.00000000
   3.70500000  0.71302972  0.00000000
   6.17500000  0.71302972  0.00000000
  -0.00000000  2.85210900  0.00000000
   2.47000000  2.85210900  0.00000000
   4.94000000  2.85210900  0.00000000
   1.23500000  4.99117840  0.00000000
   3.70500000  4.99117840  0.00000000
  -1.23500000  4.99117840  0.00000000
   0.00000000  0.00000000  2.01675006
   2.47000000  0.00000000  2.01675006
   4.94000000  0.00000000  2.01675006
   1.23500000  2.13907928  2.01675006
   3.70500000  2.13907928  2.01675006
   6.17500000  2.13907928  2.01675006
   0.00000000  4.27816350  2.01675006
   2.47000000  4.27816350  2.01675006
   4.94000000  4.27816350  2.01675006
   1.23517845  0.71964801  4.05690153
   3.70118674  0.71452147  4.04411429
   6.17001770  0.71409827  4.05532688
  -0.00136859  2.85415062  4.06797098
   2.46634800  2.85953544  4.04547239
   4.93435120  2.86120049  4.04300427
   1.21852504  4.98595685  4.06739319
   3.70284629  5.00418541  4.04804402
  -1.22498634  4.98638563  4.06349620
  -0.00838448  0.02300022  6.01946821
  -1.23106934  6.40135797  5.98632030
   1.21978193  6.40543171  5.98865884
   1.29463701  2.13372021  6.00263202
   3.70295207  2.13104484  5.97327787
   6.10916043  2.12289011  5.98202110
  -0.00332949  4.26711750  6.06798785
   2.50087320  4.30316365  5.97797975
   4.91387139  4.29609155  5.98137108
   1.40246981  4.12337934  9.28078124
   0.57085195  2.87106417  9.09843534
   1.31086906  1.60596723  9.48843111
   0.17785685  2.79574178  7.69143829
   0.85093943  5.01462486  8.94830833
   2.32974041  4.04926293  8.68567976
   1.67742019  4.24712649 10.33935129
  -0.37277412  2.95396853  9.66467434
  -0.00982512  1.61184269  7.22356536
   2.22665569  1.50846268  8.88360231
   1.58943073  1.64277442 10.55196158
   0.69088307  0.71366088  9.31809450
 


--------------------------------------------------------------------------------------------------------


 k-point  1 :   0.0000 0.0000 0.0000  plane waves:   21237
 k-point  2 :   0.3333 0.0000 0.0000  plane waves:   21309
 k-point  3 :   0.0000 0.3333 0.0000  plane waves:   21309
 k-point  4 :   0.3333 0.3333 0.0000  plane waves:   21354
 k-point  5 :  -0.3333 0.3333 0.0000  plane waves:   21309

 maximum and minimum number of plane-waves per node :     21354    21237

 maximum number of plane-waves:     21354
 maximum index in each direction: 
   IXMAX=   12   IYMAX=   12   IZMAX=   40
   IXMIN=  -12   IYMIN=  -12   IZMIN=  -40

 WARNING: aliasing errors must be expected set NGX to  50 to avoid them
 WARNING: aliasing errors must be expected set NGY to  50 to avoid them
 WARNING: aliasing errors must be expected set NGZ to 162 to avoid them
 aliasing errors are usually negligible using standard VASP settings
 and one can safely disregard these warnings

 serial   3D FFT for wavefunctions
 parallel 3D FFT for charge:
    minimum data exchange during FFTs selected (reduces bandwidth)


 total amount of memory used by VASP on root node   182355. kBytes
========================================================================

   base      :      30000. kBytes
   nonlr-proj:       9791. kBytes
   fftplans  :       6203. kBytes
   grid      :      28885. kBytes
   one-center:       1492. kBytes
   wavefun   :     105984. kBytes
 
     INWAV:  cpu time    0.00: real time    0.00
 Broyden mixing: mesh for mixing (old mesh)
   NGX = 25   NGY = 25   NGZ = 81
  (NGX  = 72   NGY  = 72   NGZ  =252)
  gives a total of  50625 points

 initial charge density was supplied:
 charge density of overlapping atoms calculated
 number of electron     350.0000000 magnetization      58.6800000
 keeping initial charge density in first step


--------------------------------------------------------------------------------------------------------


 Maximum index for non-local projection operator         1491
 Maximum index for augmentation-charges          729 (set IRDMAX)


--------------------------------------------------------------------------------------------------------


 First call to EWALD:  gamma=   0.168
 Maximum number of real-space cells 4x 4x 1
 Maximum number of reciprocal cells 2x 2x 6

 FEWALD executed in parallel
    FEWALD:  cpu time    0.00: real time    0.00


----------------------------------------- Iteration    1(   1)  ---------------------------------------


    POTLOK:  cpu time    0.28: real time    0.27
    SETDIJ:  cpu time    0.04: real time    0.04
     EDDAV:  cpu time   20.67: real time   20.79
       DOS:  cpu time    0.00: real time    0.00
    --------------------------------------------
      LOOP:  cpu time   20.99: real time   21.11

 eigenvalue-minimisations  :  4800
 total energy-change (2. order) : 0.2658378E+04  (-0.1285146E+05)
 number of electron     350.0000000 magnetization      58.6800000
 augmentation part      350.0000000 magnetization      58.6800000

 Free energy of the ion-electron system (eV)
  ---------------------------------------------------
  alpha Z        PSCENC =       535.95746614
  Ewald energy   TEWEN  =    165672.99695772
  -Hartree energ DENC   =   -194804.10635810
  -exchange      EXHF   =         0.00000000
  -V(xc)+E(xc)   XCENC  =       692.81344863
  PAW double counting   =     26634.84132827   -28546.63490259
  entropy T*S    EENTRO =         0.00755769
  eigenvalues    EBANDS =      2218.15019786
  atomic energy  EATOM  =     30254.35235659
  Solvation contrib.  Ediel  =         0.00000000
  ---------------------------------------------------
  free energy    TOTEN  =      2658.37805220 eV

  energy without entropy =     2658.37049450  energy(sigma->0) =     2658.37616277


--------------------------------------------------------------------------------------------------------




----------------------------------------- Iteration    1(   2)  ---------------------------------------


     EDDAV:  cpu time   21.81: real time   21.81
       DOS:  cpu time    0.00: real time    0.00
    --------------------------------------------
      LOOP:  cpu time   21.82: real time   21.82

 eigenvalue-minimisations  :  4800
 total energy-change (2. order) :-0.2671725E+04  (-0.2501734E+04)
 number of electron     350.0000000 magnetization      58.6800000
 augmentation part      350.0000000 magnetization      58.6800000

 Free energy of the ion-electron system (eV)
  ---------------------------------------------------
  alpha Z        PSCENC =       535.95746614
  Ewald energy   TEWEN  =    165672.99695772
  -Hartree energ DENC   =   -194804.10635810
  -exchange      EXHF   =         0.00000000
  -V(xc)+E(xc)   XCENC  =       692.81344863
  PAW double counting   =     26634.84132827   -28546.63490259
  entropy T*S    EENTRO =        -0.01039060
  eigenvalues    EBANDS =      -453.55665450
  atomic energy  EATOM  =     30254.35235659
  Solvation contrib.  Ediel  =         0.00000000
  ---------------------------------------------------
  free energy    TOTEN  =       -13.34674845 eV

  energy without entropy =      -13.33635786  energy(sigma->0) =      -13.34415080


--------------------------------------------------------------------------------------------------------




----------------------------------------- Iteration    1(   3)  ---------------------------------------


     EDDAV:  cpu time   26.03: real time   26.07
       DOS:  cpu time    0.00: real time    0.00
    --------------------------------------------
      LOOP:  cpu time   26.03: real time   26.08

 eigenvalue-minimisations  :  6024
 total energy-change (2. order) :-0.3065032E+03  (-0.2700701E+03)
 number of electron     350.0000000 magnetization      58.6800000
 augmentation part      350.0000000 magnetization      58.6800000

 Free energy of the ion-electron system (eV)
  ---------------------------------------------------
  alpha Z        PSCENC =       535.95746614
  Ewald energy   TEWEN  =    165672.99695772
  -Hartree energ DENC   =   -194804.10635810
  -exchange      EXHF   =         0.00000000
  -V(xc)+E(xc)   XCENC  =       692.81344863
  PAW double counting   =     26634.84132827   -28546.63490259
  entropy T*S    EENTRO =         0.11968056
  eigenvalues    EBANDS =      -760.18994831
  atomic energy  EATOM  =     30254.35235659
  Solvation contrib.  Ediel  =         0.00000000
  ---------------------------------------------------
  free energy    TOTEN  =      -319.84997111 eV

  energy without entropy =     -319.96965167  energy(sigma->0) =     -319.87989125


--------------------------------------------------------------------------------------------------------




----------------------------------------- Iteration    1(   4)  ---------------------------------------


     EDDAV:  cpu time   24.97: real time   24.97
       DOS:  cpu time    0.00: real time    0.00
    --------------------------------------------
      LOOP:  cpu time   24.98: real time   24.98

 eigenvalue-minimisations  :  5736
 total energy-change (2. order) :-0.2546078E+02  (-0.2468950E+02)
 number of electron     350.0000000 magnetization      58.6800000
 augmentation part      350.0000000 magnetization      58.6800000

 Free energy of the ion-electron system (eV)
  ---------------------------------------------------
  alpha Z        PSCENC =       535.95746614
  Ewald energy   TEWEN  =    165672.99695772
  -Hartree energ DENC   =   -194804.10635810
  -exchange      EXHF   =         0.00000000
  -V(xc)+E(xc)   XCENC  =       692.81344863
  PAW double counting   =     26634.84132827   -28546.63490259
  entropy T*S    EENTRO =         0.13494683
  eigenvalues    EBANDS =      -785.66599092
  atomic energy  EATOM  =     30254.35235659
  Solvation contrib.  Ediel  =         0.00000000
  ---------------------------------------------------
  free energy    TOTEN  =      -345.31074745 eV

  energy without entropy =     -345.44569428  energy(sigma->0) =     -345.34448416


--------------------------------------------------------------------------------------------------------




----------------------------------------- Iteration    1(   5)  ---------------------------------------


     EDDAV:  cpu time   29.64: real time   29.64
       DOS:  cpu time    0.00: real time    0.00
    CHARGE:  cpu time    1.51: real time    1.51
    MIXING:  cpu time    0.01: real time    0.01
    --------------------------------------------
      LOOP:  cpu time   31.16: real time   31.16

 eigenvalue-minimisations  :  6208
 total energy-change (2. order) :-0.8459467E+00  (-0.8410689E+00)
 number of electron     349.9998738 magnetization      58.3476933
 augmentation part      166.7970547 magnetization      46.2650108

 Broyden mixing:
  rms(total) = 0.64376E+01    rms(broyden)= 0.64373E+01
  rms(prec ) = 0.66979E+01
  weight for this iteration     100.00

 Free energy of the ion-electron system (eV)
  ---------------------------------------------------
  alpha Z        PSCENC =       535.95746614
  Ewald energy   TEWEN  =    165672.99695772
  -Hartree energ DENC   =   -194804.10635810
  -exchange      EXHF   =         0.00000000
  -V(xc)+E(xc)   XCENC  =       692.81344863
  PAW double counting   =     26634.84132827   -28546.63490259
  entropy T*S    EENTRO =         0.13505318
  eigenvalues    EBANDS =      -786.51204399
  atomic energy  EATOM  =     30254.35235659
  Solvation contrib.  Ediel  =         0.00000000
  ---------------------------------------------------
  free energy    TOTEN  =      -346.15669416 eV

  energy without entropy =     -346.29174734  energy(sigma->0) =     -346.19045746


--------------------------------------------------------------------------------------------------------




----------------------------------------- Iteration    1(   6)  ---------------------------------------


    POTLOK:  cpu time    0.37: real time    0.37
    SETDIJ:  cpu time    0.05: real time    0.05
     EDDAV:  cpu time   39.27: real time   39.27
       DOS:  cpu time    0.00: real time    0.00
    CHARGE:  cpu time    1.36: real time    1.36
    MIXING:  cpu time    0.01: real time    0.01
    --------------------------------------------
      LOOP:  cpu time   41.06: real time   41.06

 eigenvalue-minimisations  :  6040
 total energy-change (2. order) :-0.6443370E+02  (-0.3807697E+02)
 number of electron     349.9998145 magnetization      57.8122400
 augmentation part      189.7862898 magnetization      51.3193746

 Broyden mixing:
  rms(total) = 0.12765E+02    rms(broyden)= 0.12764E+02
  rms(prec ) = 0.14193E+02
  weight for this iteration     100.00

 eigenvalues of (default mixing * dielectric matrix)
  average eigenvalue GAMMA=   0.2355
  0.2355

 Free energy of the ion-electron system (eV)
  ---------------------------------------------------
  alpha Z        PSCENC =       535.95746614
  Ewald energy   TEWEN  =    165672.99695772
  -Hartree energ DENC   =   -194430.61973973
  -exchange      EXHF   =         0.00000000
  -V(xc)+E(xc)   XCENC  =       667.86961833
  PAW double counting   =     29452.27792616   -31177.57104558
  entropy T*S    EENTRO =         0.02465937
  eigenvalues    EBANDS =     -1385.87858984
  atomic energy  EATOM  =     30254.35235659
  Solvation contrib.  Ediel  =         0.00000000
  ---------------------------------------------------
  free energy    TOTEN  =      -410.59039084 eV

  energy without entropy =     -410.61505021  energy(sigma->0) =     -410.59655568


--------------------------------------------------------------------------------------------------------




----------------------------------------- Iteration    1(   7)  ---------------------------------------


    POTLOK:  cpu time    0.36: real time    0.36
    SETDIJ:  cpu time    0.05: real time    0.05
     EDDAV:  cpu time   35.53: real time   35.53
       DOS:  cpu time    0.00: real time    0.00
    CHARGE:  cpu time    1.41: real time    1.41
    MIXING:  cpu time    0.01: real time    0.04
    --------------------------------------------
      LOOP:  cpu time   37.36: real time   37.39

 eigenvalue-minimisations  :  5360
 total energy-change (2. order) : 0.4884446E+02  (-0.2447660E+02)
 number of electron     349.9998708 magnetization      56.9118900
 augmentation part      195.4684501 magnetization      47.2589852

 Broyden mixing:
  rms(total) = 0.96609E+01    rms(broyden)= 0.96605E+01
  rms(prec ) = 0.11161E+02
  weight for this iteration     100.00

 eigenvalues of (default mixing * dielectric matrix)
  average eigenvalue GAMMA=   0.3364
  0.5435  0.1294

 Free energy of the ion-electron system (eV)
  ---------------------------------------------------
  alpha Z        PSCENC =       535.95746614
  Ewald energy   TEWEN  =    165672.99695772
  -Hartree energ DENC   =   -194183.38608127
  -exchange      EXHF   =         0.00000000
  -V(xc)+E(xc)   XCENC  =       666.65037313
  PAW double counting   =     29995.31361492   -31749.59670090
  entropy T*S    EENTRO =         0.02112603
  eigenvalues    EBANDS =     -1554.05504496
  atomic energy  EATOM  =     30254.35235659
  Solvation contrib.  Ediel  =         0.00000000
  ---------------------------------------------------
  free energy    TOTEN  =      -361.74593261 eV

  energy without entropy =     -361.76705864  energy(sigma->0) =     -361.75121412


--------------------------------------------------------------------------------------------------------




----------------------------------------- Iteration    1(   8)  ---------------------------------------


    POTLOK:  cpu time    0.36: real time    0.36
    SETDIJ:  cpu time    0.05: real time    0.05
     EDDAV:  cpu time   48.38: real time   48.38
       DOS:  cpu time    0.00: real time    0.00
    CHARGE:  cpu time    1.67: real time    1.67
    MIXING:  cpu time    0.01: real time    0.01
    --------------------------------------------
      LOOP:  cpu time   50.47: real time   50.48

 eigenvalue-minimisations  :  6616
 total energy-change (2. order) : 0.1325549E+02  (-0.1074750E+02)
 number of electron     349.9998313 magnetization      56.6065360
 augmentation part      188.4788150 magnetization      48.0255165

 Broyden mixing:
  rms(total) = 0.85746E+01    rms(broyden)= 0.85744E+01
  rms(prec ) = 0.11440E+02
  weight for this iteration     100.00

 eigenvalues of (default mixing * dielectric matrix)
  average eigenvalue GAMMA=   0.3018
  0.5333  0.2542  0.1179

 Free energy of the ion-electron system (eV)
  ---------------------------------------------------
  alpha Z        PSCENC =       535.95746614
  Ewald energy   TEWEN  =    165672.99695772
  -Hartree energ DENC   =   -194622.73592927
  -exchange      EXHF   =         0.00000000
  -V(xc)+E(xc)   XCENC  =       669.52044190
  PAW double counting   =     31356.35978866   -33198.39993312
  entropy T*S    EENTRO =         0.00436490
  eigenvalues    EBANDS =     -1016.54595230
  atomic energy  EATOM  =     30254.35235659
  Solvation contrib.  Ediel  =         0.00000000
  ---------------------------------------------------
  free energy    TOTEN  =      -348.49043878 eV

  energy without entropy =     -348.49480368  energy(sigma->0) =     -348.49153000


--------------------------------------------------------------------------------------------------------




----------------------------------------- Iteration    1(   9)  ---------------------------------------


    POTLOK:  cpu time    0.45: real time    0.45
    SETDIJ:  cpu time    0.06: real time    0.06
     EDDAV:  cpu time   60.58: real time   60.60
       DOS:  cpu time    0.00: real time    0.00
    CHARGE:  cpu time    1.58: real time    1.58
    MIXING:  cpu time    0.01: real time    0.01
    --------------------------------------------
      LOOP:  cpu time   62.69: real time   62.71

 eigenvalue-minimisations  :  7264
 total energy-change (2. order) : 0.7271387E+01  (-0.7517339E+01)
 number of electron     349.9998506 magnetization      55.8833160
 augmentation part      185.8163881 magnetization      47.0532668

 Broyden mixing:
  rms(total) = 0.78773E+01    rms(broyden)= 0.78770E+01
  rms(prec ) = 0.10552E+02
  weight for this iteration     100.00

 eigenvalues of (default mixing * dielectric matrix)
  average eigenvalue GAMMA=   0.3508
  0.6051  0.6051  0.1199  0.0731

 Free energy of the ion-electron system (eV)
  ---------------------------------------------------
  alpha Z        PSCENC =       535.95746614
  Ewald energy   TEWEN  =    165672.99695772
  -Hartree energ DENC   =   -194645.62393733
  -exchange      EXHF   =         0.00000000
  -V(xc)+E(xc)   XCENC  =       670.17463974
  PAW double counting   =     31628.03969926   -33484.39392091
  entropy T*S    EENTRO =         0.00366719
  eigenvalues    EBANDS =      -972.72597969
  atomic energy  EATOM  =     30254.35235659
  Solvation contrib.  Ediel  =         0.00000000
  ---------------------------------------------------
  free energy    TOTEN  =      -341.21905130 eV

  energy without entropy =     -341.22271849  energy(sigma->0) =     -341.21996809


--------------------------------------------------------------------------------------------------------




----------------------------------------- Iteration    1(  10)  ---------------------------------------


    POTLOK:  cpu time    0.45: real time    0.45
    SETDIJ:  cpu time    0.07: real time    0.07
     EDDAV:  cpu time   45.72: real time   45.73
       DOS:  cpu time    0.00: real time    0.00
    CHARGE:  cpu time    1.44: real time    1.44
    MIXING:  cpu time    0.01: real time    0.01
    --------------------------------------------
      LOOP:  cpu time   47.70: real time   47.71

 eigenvalue-minimisations  :  5768
 total energy-change (2. order) :-0.2979033E+02  (-0.7088036E+01)
 number of electron     349.9998458 magnetization      54.7066598
 augmentation part      187.1645419 magnetization      47.5151035

 Broyden mixing:
  rms(total) = 0.11109E+02    rms(broyden)= 0.11108E+02
  rms(prec ) = 0.12908E+02
  weight for this iteration     100.00

 eigenvalues of (default mixing * dielectric matrix)
  average eigenvalue GAMMA=   0.3724
  0.7818  0.7818  0.1164  0.1164  0.0656

 Free energy of the ion-electron system (eV)
  ---------------------------------------------------
  alpha Z        PSCENC =       535.95746614
  Ewald energy   TEWEN  =    165672.99695772
  -Hartree energ DENC   =   -194648.13246175
  -exchange      EXHF   =         0.00000000
  -V(xc)+E(xc)   XCENC  =       670.69236500
  PAW double counting   =     32090.42136668   -33963.52074414
  entropy T*S    EENTRO =        -0.01390151
  eigenvalues    EBANDS =      -983.76278467
  atomic energy  EATOM  =     30254.35235659
  Solvation contrib.  Ediel  =         0.00000000
  ---------------------------------------------------
  free energy    TOTEN  =      -371.00937995 eV

  energy without entropy =     -370.99547844  energy(sigma->0) =     -371.00590457


--------------------------------------------------------------------------------------------------------




----------------------------------------- Iteration    1(  11)  ---------------------------------------


    POTLOK:  cpu time    0.36: real time    0.36
    SETDIJ:  cpu time    0.05: real time    0.05
     EDDAV:  cpu time   34.13: real time   34.13
       DOS:  cpu time    0.00: real time    0.00
    CHARGE:  cpu time    1.40: real time    1.40
    MIXING:  cpu time    0.01: real time    0.01
    --------------------------------------------
      LOOP:  cpu time   35.96: real time   35.96

 eigenvalue-minimisations  :  5600
 total energy-change (2. order) : 0.6401831E+02  (-0.5433005E+01)
 number of electron     349.9998573 magnetization      54.5443595
 augmentation part      186.2916550 magnetization      42.6167895

 Broyden mixing:
  rms(total) = 0.51814E+01    rms(broyden)= 0.51811E+01
  rms(prec ) = 0.56831E+01
  weight for this iteration     100.00

 eigenvalues of (default mixing * dielectric matrix)
  average eigenvalue GAMMA=   0.3427
  0.7760  0.7760  0.1753  0.1332  0.1332  0.0627

 Free energy of the ion-electron system (eV)
  ---------------------------------------------------
  alpha Z        PSCENC =       535.95746614
  Ewald energy   TEWEN  =    165672.99695772
  -Hartree energ DENC   =   -194628.57459510
  -exchange      EXHF   =         0.00000000
  -V(xc)+E(xc)   XCENC  =       672.68752370
  PAW double counting   =     32718.02530732   -34614.83829189
  entropy T*S    EENTRO =         0.01116791
  eigenvalues    EBANDS =      -917.60895745
  atomic energy  EATOM  =     30254.35235659
  Solvation contrib.  Ediel  =         0.00000000
  ---------------------------------------------------
  free energy    TOTEN  =      -306.99106506 eV

  energy without entropy =     -307.00223297  energy(sigma->0) =     -306.99385703


--------------------------------------------------------------------------------------------------------




----------------------------------------- Iteration    1(  12)  ---------------------------------------


    POTLOK:  cpu time    0.36: real time    0.36
    SETDIJ:  cpu time    0.05: real time    0.05
     EDDAV:  cpu time   32.00: real time   32.00
       DOS:  cpu time    0.00: real time    0.00
    CHARGE:  cpu time    1.40: real time    1.40
    MIXING:  cpu time    0.02: real time    0.01
    --------------------------------------------
      LOOP:  cpu time   33.82: real time   33.82

 eigenvalue-minimisations  :  5136
 total energy-change (2. order) : 0.4307229E+01  (-0.3344323E+01)
 number of electron     349.9998593 magnetization      54.4721557
 augmentation part      185.7407962 magnetization      42.6240296

 Broyden mixing:
  rms(total) = 0.42126E+01    rms(broyden)= 0.42125E+01
  rms(prec ) = 0.46322E+01
  weight for this iteration     100.00

 eigenvalues of (default mixing * dielectric matrix)
  average eigenvalue GAMMA=   0.3216
  1.0425  0.4445  0.2931  0.1715  0.1177  0.1177  0.0640

 Free energy of the ion-electron system (eV)
  ---------------------------------------------------
  alpha Z        PSCENC =       535.95746614
  Ewald energy   TEWEN  =    165672.99695772
  -Hartree energ DENC   =   -194652.51426707
  -exchange      EXHF   =         0.00000000
  -V(xc)+E(xc)   XCENC  =       673.49712474
  PAW double counting   =     32904.60615648   -34806.07799272
  entropy T*S    EENTRO =        -0.02295045
  eigenvalues    EBANDS =      -885.47868789
  atomic energy  EATOM  =     30254.35235659
  Solvation contrib.  Ediel  =         0.00000000
  ---------------------------------------------------
  free energy    TOTEN  =      -302.68383648 eV

  energy without entropy =     -302.66088602  energy(sigma->0) =     -302.67809886


--------------------------------------------------------------------------------------------------------




----------------------------------------- Iteration    1(  13)  ---------------------------------------


    POTLOK:  cpu time    0.36: real time    0.36
    SETDIJ:  cpu time    0.05: real time    0.05
     EDDAV:  cpu time   32.52: real time   32.52
       DOS:  cpu time    0.00: real time    0.00
    CHARGE:  cpu time    1.35: real time    1.35
    MIXING:  cpu time    0.01: real time    0.01
    --------------------------------------------
      LOOP:  cpu time   34.30: real time   34.30

 eigenvalue-minimisations  :  5208
 total energy-change (2. order) : 0.3618325E+01  (-0.1449901E+01)
 number of electron     349.9998557 magnetization      54.5376790
 augmentation part      185.5024189 magnetization      42.9131446

 Broyden mixing:
  rms(total) = 0.34749E+01    rms(broyden)= 0.34747E+01
  rms(prec ) = 0.39958E+01
  weight for this iteration     100.00

 eigenvalues of (default mixing * dielectric matrix)
  average eigenvalue GAMMA=   0.3261
  1.1121  0.3948  0.3409  0.3409  0.1242  0.1242  0.0632  0.1084

 Free energy of the ion-electron system (eV)
  ---------------------------------------------------
  alpha Z        PSCENC =       535.95746614
  Ewald energy   TEWEN  =    165672.99695772
  -Hartree energ DENC   =   -194694.32135319
  -exchange      EXHF   =         0.00000000
  -V(xc)+E(xc)   XCENC  =       673.96243449
  PAW double counting   =     33124.13758988   -35029.86067022
  entropy T*S    EENTRO =         0.03170695
  eigenvalues    EBANDS =      -836.32199985
  atomic energy  EATOM  =     30254.35235659
  Solvation contrib.  Ediel  =         0.00000000
  ---------------------------------------------------
  free energy    TOTEN  =      -299.06551151 eV

  energy without entropy =     -299.09721846  energy(sigma->0) =     -299.07343825


--------------------------------------------------------------------------------------------------------




----------------------------------------- Iteration    1(  14)  ---------------------------------------


    POTLOK:  cpu time    0.36: real time    0.36
    SETDIJ:  cpu time    0.05: real time    0.05
     EDDAV:  cpu time   33.42: real time   33.42
       DOS:  cpu time    0.00: real time    0.00
    CHARGE:  cpu time    1.36: real time    1.36
    MIXING:  cpu time    0.01: real time    0.01
    --------------------------------------------
      LOOP:  cpu time   35.21: real time   35.21

 eigenvalue-minimisations  :  5400
 total energy-change (2. order) :-0.1838130E-01  (-0.1081658E+01)
 number of electron     349.9998529 magnetization      54.6011389
 augmentation part      185.1839628 magnetization      43.9117560

 Broyden mixing:
  rms(total) = 0.28725E+01    rms(broyden)= 0.28724E+01
  rms(prec ) = 0.31689E+01
  weight for this iteration     100.00

 eigenvalues of (default mixing * dielectric matrix)
  average eigenvalue GAMMA=   0.3440
  1.2061  0.4615  0.4615  0.4267  0.1321  0.1321  0.0633  0.1066  0.1066

 Free energy of the ion-electron system (eV)
  ---------------------------------------------------
  alpha Z        PSCENC =       535.95746614
  Ewald energy   TEWEN  =    165672.99695772
  -Hartree energ DENC   =   -194714.87086760
  -exchange      EXHF   =         0.00000000
  -V(xc)+E(xc)   XCENC  =       674.47178487
  PAW double counting   =     33209.36351051   -35116.86897367
  entropy T*S    EENTRO =        -0.03702314
  eigenvalues    EBANDS =      -814.44910422
  atomic energy  EATOM  =     30254.35235659
  Solvation contrib.  Ediel  =         0.00000000
  ---------------------------------------------------
  free energy    TOTEN  =      -299.08389281 eV

  energy without entropy =     -299.04686967  energy(sigma->0) =     -299.07463703


--------------------------------------------------------------------------------------------------------




----------------------------------------- Iteration    1(  15)  ---------------------------------------


    POTLOK:  cpu time    0.36: real time    0.36
    SETDIJ:  cpu time    0.05: real time    0.05
     EDDAV:  cpu time   32.52: real time   32.52
       DOS:  cpu time    0.00: real time    0.00
    CHARGE:  cpu time    1.40: real time    1.40
    MIXING:  cpu time    0.02: real time    0.02
    --------------------------------------------
      LOOP:  cpu time   34.36: real time   34.35

 eigenvalue-minimisations  :  5208
 total energy-change (2. order) : 0.3102851E+00  (-0.7012722E+00)
 number of electron     349.9998526 magnetization      54.6396779
 augmentation part      185.1391215 magnetization      44.0833179

 Broyden mixing:
  rms(total) = 0.19470E+01    rms(broyden)= 0.19469E+01
  rms(prec ) = 0.20694E+01
  weight for this iteration     100.00

 eigenvalues of (default mixing * dielectric matrix)
  average eigenvalue GAMMA=   0.3383
  1.2389  0.4979  0.4979  0.4279  0.1710  0.0633  0.1282  0.1282  0.1276  0.1020

 Free energy of the ion-electron system (eV)
  ---------------------------------------------------
  alpha Z        PSCENC =       535.95746614
  Ewald energy   TEWEN  =    165672.99695772
  -Hartree energ DENC   =   -194725.06923609
  -exchange      EXHF   =         0.00000000
  -V(xc)+E(xc)   XCENC  =       674.99220615
  PAW double counting   =     33338.33378488   -35247.81616625
  entropy T*S    EENTRO =         0.04525755
  eigenvalues    EBANDS =      -802.56623442
  atomic energy  EATOM  =     30254.35235659
  Solvation contrib.  Ediel  =         0.00000000
  ---------------------------------------------------
  free energy    TOTEN  =      -298.77360774 eV

  energy without entropy =     -298.81886529  energy(sigma->0) =     -298.78492213


--------------------------------------------------------------------------------------------------------




----------------------------------------- Iteration    1(  16)  ---------------------------------------


    POTLOK:  cpu time    0.36: real time    0.36
    SETDIJ:  cpu time    0.05: real time    0.05
     EDDAV:  cpu time   32.54: real time   32.54
       DOS:  cpu time    0.00: real time    0.00
    CHARGE:  cpu time    1.36: real time    1.36
    MIXING:  cpu time    0.02: real time    0.02
    --------------------------------------------
      LOOP:  cpu time   34.32: real time   34.33

 eigenvalue-minimisations  :  5288
 total energy-change (2. order) : 0.5997299E-01  (-0.2434393E+00)
 number of electron     349.9998558 magnetization      54.7178208
 augmentation part      185.0305519 magnetization      44.7759613

 Broyden mixing:
  rms(total) = 0.16988E+01    rms(broyden)= 0.16988E+01
  rms(prec ) = 0.18060E+01
  weight for this iteration     100.00

 eigenvalues of (default mixing * dielectric matrix)
  average eigenvalue GAMMA=   0.3683
  1.3404  0.6246  0.6246  0.3984  0.3984  0.0633  0.1345  0.1345  0.1099  0.1099
  0.1127

 Free energy of the ion-electron system (eV)
  ---------------------------------------------------
  alpha Z        PSCENC =       535.95746614
  Ewald energy   TEWEN  =    165672.99695772
  -Hartree energ DENC   =   -194721.12970234
  -exchange      EXHF   =         0.00000000
  -V(xc)+E(xc)   XCENC  =       675.13664996
  PAW double counting   =     33394.98500355   -35304.92879449
  entropy T*S    EENTRO =        -0.00008155
  eigenvalues    EBANDS =      -806.08349032
  atomic energy  EATOM  =     30254.35235659
  Solvation contrib.  Ediel  =         0.00000000
  ---------------------------------------------------
  free energy    TOTEN  =      -298.71363475 eV

  energy without entropy =     -298.71355321  energy(sigma->0) =     -298.71361437


--------------------------------------------------------------------------------------------------------




----------------------------------------- Iteration    1(  17)  ---------------------------------------


    POTLOK:  cpu time    0.36: real time    0.36
    SETDIJ:  cpu time    0.05: real time    0.05
     EDDAV:  cpu time   32.16: real time   32.16
       DOS:  cpu time    0.00: real time    0.00
    CHARGE:  cpu time    1.43: real time    1.43
    MIXING:  cpu time    0.02: real time    0.02
    --------------------------------------------
      LOOP:  cpu time   34.03: real time   34.03

 eigenvalue-minimisations  :  5224
 total energy-change (2. order) :-0.2178282E+01  (-0.1956228E+00)
 number of electron     349.9998575 magnetization      54.8057986
 augmentation part      185.2923391 magnetization      45.8023919

 Broyden mixing:
  rms(total) = 0.17719E+01    rms(broyden)= 0.17718E+01
  rms(prec ) = 0.19134E+01
  weight for this iteration     100.00

 eigenvalues of (default mixing * dielectric matrix)
  average eigenvalue GAMMA=   0.3740
  1.3670  0.7043  0.7043  0.3639  0.3639  0.3181  0.0633  0.1251  0.1251  0.1230
  0.1230  0.1070

 Free energy of the ion-electron system (eV)
  ---------------------------------------------------
  alpha Z        PSCENC =       535.95746614
  Ewald energy   TEWEN  =    165672.99695772
  -Hartree energ DENC   =   -194721.52390958
  -exchange      EXHF   =         0.00000000
  -V(xc)+E(xc)   XCENC  =       674.98200750
  PAW double counting   =     33568.94036931   -35479.20396415
  entropy T*S    EENTRO =         0.01070025
  eigenvalues    EBANDS =      -807.40390065
  atomic energy  EATOM  =     30254.35235659
  Solvation contrib.  Ediel  =         0.00000000
  ---------------------------------------------------
  free energy    TOTEN  =      -300.89191688 eV

  energy without entropy =     -300.90261713  energy(sigma->0) =     -300.89459194


--------------------------------------------------------------------------------------------------------




----------------------------------------- Iteration    1(  18)  ---------------------------------------


    POTLOK:  cpu time    0.34: real time    0.34
    SETDIJ:  cpu time    0.05: real time    0.05
     EDDAV:  cpu time   31.72: real time   31.73
       DOS:  cpu time    0.00: real time    0.00
    CHARGE:  cpu time    1.44: real time    1.44
    MIXING:  cpu time    0.02: real time    0.02
    --------------------------------------------
      LOOP:  cpu time   33.58: real time   33.57

 eigenvalue-minimisations  :  5160
 total energy-change (2. order) :-0.5351216E+00  (-0.1916509E+00)
 number of electron     349.9998555 magnetization      55.1127091
 augmentation part      185.4543272 magnetization      46.6436725

 Broyden mixing:
  rms(total) = 0.16160E+01    rms(broyden)= 0.16159E+01
  rms(prec ) = 0.17183E+01
  weight for this iteration     100.00

 eigenvalues of (default mixing * dielectric matrix)
  average eigenvalue GAMMA=   0.4207
  1.4580  0.9079  0.9079  0.4809  0.4508  0.4508  0.0633  0.1461  0.1294  0.1294
  0.1177  0.1177  0.1089

 Free energy of the ion-electron system (eV)
  ---------------------------------------------------
  alpha Z        PSCENC =       535.95746614
  Ewald energy   TEWEN  =    165672.99695772
  -Hartree energ DENC   =   -194731.80481371
  -exchange      EXHF   =         0.00000000
  -V(xc)+E(xc)   XCENC  =       675.34388634
  PAW double counting   =     33639.53240448   -35549.23506615
  entropy T*S    EENTRO =         0.00017255
  eigenvalues    EBANDS =      -798.57040239
  atomic energy  EATOM  =     30254.35235659
  Solvation contrib.  Ediel  =         0.00000000
  ---------------------------------------------------
  free energy    TOTEN  =      -301.42703844 eV

  energy without entropy =     -301.42721098  energy(sigma->0) =     -301.42708157


--------------------------------------------------------------------------------------------------------




----------------------------------------- Iteration    1(  19)  ---------------------------------------


    POTLOK:  cpu time    0.36: real time    0.36
    SETDIJ:  cpu time    0.05: real time    0.05
     EDDAV:  cpu time   34.72: real time   34.73
       DOS:  cpu time    0.00: real time    0.00
    CHARGE:  cpu time    1.39: real time    1.39
    MIXING:  cpu time    0.02: real time    0.02
    --------------------------------------------
      LOOP:  cpu time   36.55: real time   36.55

 eigenvalue-minimisations  :  5744
 total energy-change (2. order) :-0.1239181E+01  (-0.2948458E+00)
 number of electron     349.9998521 magnetization      55.3439826
 augmentation part      185.9354517 magnetization      48.1683848

 Broyden mixing:
  rms(total) = 0.12906E+01    rms(broyden)= 0.12906E+01
  rms(prec ) = 0.13748E+01
  weight for this iteration     100.00

 eigenvalues of (default mixing * dielectric matrix)
  average eigenvalue GAMMA=   0.4400
  1.4791  0.9966  0.9966  0.5701  0.4968  0.4968  0.3306  0.0633  0.1235  0.1235
  0.1086  0.1285  0.1230  0.1230

 Free energy of the ion-electron system (eV)
  ---------------------------------------------------
  alpha Z        PSCENC =       535.95746614
  Ewald energy   TEWEN  =    165672.99695772
  -Hartree energ DENC   =   -194750.00441562
  -exchange      EXHF   =         0.00000000
  -V(xc)+E(xc)   XCENC  =       676.20106710
  PAW double counting   =     33790.62692994   -35698.03130894
  entropy T*S    EENTRO =        -0.02619232
  eigenvalues    EBANDS =      -784.73907977
  atomic energy  EATOM  =     30254.35235659
  Solvation contrib.  Ediel  =         0.00000000
  ---------------------------------------------------
  free energy    TOTEN  =      -302.66621917 eV

  energy without entropy =     -302.64002685  energy(sigma->0) =     -302.65967109


--------------------------------------------------------------------------------------------------------




----------------------------------------- Iteration    1(  20)  ---------------------------------------


    POTLOK:  cpu time    0.36: real time    0.36
    SETDIJ:  cpu time    0.05: real time    0.05
     EDDAV:  cpu time   34.54: real time   34.55
       DOS:  cpu time    0.00: real time    0.00
    CHARGE:  cpu time    1.38: real time    1.38
    MIXING:  cpu time    0.02: real time    0.02
    --------------------------------------------
      LOOP:  cpu time   36.36: real time   36.36

 eigenvalue-minimisations  :  5696
 total energy-change (2. order) :-0.6391390E+00  (-0.2156957E+00)
 number of electron     349.9998534 magnetization      55.4701769
 augmentation part      186.1511310 magnetization      48.9716413

 Broyden mixing:
[...]
     39     C          -0.146         -0.117          0.842
     40     O          -0.177         -0.135          0.995
     41     H           0.051          0.033          0.819
     42     H           0.040          0.025          0.848
     43     H           0.058          0.048          0.721
     44     H           0.059          0.043          0.727
     45     H           0.012          0.001          0.652
     46     H           0.046          0.030          0.846
     47     H           0.060          0.048          0.713
     48     H           0.057          0.039          0.779

  dDsC method for vdW energy calculation
  ---------------------------------------------------------------------------------------------

  Parameters of vdW forcefield:
            C6dDsC            XDM            ALPHAts        RELVOL
            (au)              (au)            (au)                
   ---------------------------------------------------------------
   Co        434.863         10.227         50.817          1.016
   Co        448.713         10.311         52.006          1.040
   Co        434.443         10.222         50.793          1.016
   Co        424.693         10.170         49.904          0.998
   Co        429.187         10.197         50.301          1.006
   Co        419.642         10.134         49.486          0.990
   Co        430.862         10.204         50.461          1.009
   Co        431.618         10.206         50.539          1.011
   Co        432.931         10.216         50.643          1.013
   Co        291.870          7.647         45.615          0.912
   Co        286.945          7.638         44.897          0.898
   Co        284.572          7.633         44.554          0.891
   Co        286.924          7.638         44.895          0.898
   Co        287.067          7.629         44.967          0.899
   Co        289.095          7.645         45.189          0.904
   Co        287.982          7.644         45.022          0.900
   Co        287.018          7.638         44.910          0.898
   Co        288.635          7.638         45.161          0.903
   Co        287.493          7.572         45.374          0.907
   Co        284.123          7.545         45.001          0.900
   Co        284.235          7.562         44.921          0.898
   Co        280.281          7.581         44.186          0.884
   Co        280.155          7.534         44.441          0.889
   Co        281.488          7.538         44.624          0.892
   Co        284.019          7.564         44.872          0.897
   Co        285.254          7.558         45.105          0.902
   Co        279.786          7.553         44.267          0.885
   Co        421.537          9.955         50.606          1.012
   Co        426.220         10.162         50.126          1.003
   Co        434.504         10.234         50.741          1.015
   Co        343.175          8.912         46.018          0.920
   Co        427.434         10.150         50.326          1.007
   Co        366.730          9.279         47.234          0.945
   Co        381.184          9.549         47.706          0.954
   Co        406.329          9.825         49.426          0.989
   Co        427.404         10.191         50.118          1.002
   C          46.758          5.558         10.054          0.838
   C          30.408          4.691          7.746          0.646
   C          47.073          5.566         10.107          0.842
   O          27.666          6.151          5.375          0.995
   H           6.951          2.255          3.684          0.819
   H           7.899          2.474          3.816          0.848
   H           4.538          1.672          3.243          0.721
   H           4.633          1.692          3.272          0.727
   H           4.834          1.970          2.932          0.652
   H           7.628          2.395          3.806          0.846
   H           4.438          1.654          3.207          0.713
   H           6.214          2.117          3.507          0.779

  IVDW =   4
  VDW_RADIUS =    50.000 A
  VDW_S6 aka ATT0 =    13.960
  VDW_SR aka BTT0 =     1.320
  LVDW_ONECELL = F F F

  Number of pair interactions contributing to vdW energy:  515632
  Edisp (eV):   -9.01313
    FORVDW:  cpu time   17.78: real time   17.78

  FORCE on cell =-STRESS in cart. coord.  units (eV):
  Direction    XX          YY          ZZ          XY          YZ          ZX
  --------------------------------------------------------------------------------------
  Alpha Z   535.95747   535.95747   535.95747
  Ewald  183673.61430183985.97352************    30.56406    11.55053   166.04960
  Hartree190900.97477191125.35678************    22.57358     1.21457   116.88749
  E(xc)   -1760.94827 -1760.50211 -1762.26364     0.01245     0.14838     0.13850
  Local  ************************381896.20058   -52.90755    -8.48305  -279.96495
  n-local  -245.62315  -244.53729  -268.19208     0.13338     0.45012     0.93377
  augment  5611.10437  5609.17641  5605.51932     0.48934    -0.68024    -0.11996
  Kinetic  3133.03976  3127.19549  3129.72179    -0.65172    -4.17130    -3.76207
  Fock        0.00000     0.00000     0.00000     0.00000     0.00000     0.00000
  vdW       -10.88792   -11.09502    -7.74724    -0.04062     0.00176    -0.07701
  -------------------------------------------------------------------------------------
  Total     -18.27720   -20.23196   -11.12790     0.17292     0.03076     0.08538
  in kB     -24.93194   -27.59843   -15.17958     0.23587     0.04196     0.11646
  external pressure =      -22.57 kB  Pullay stress =        0.00 kB


 VOLUME and BASIS-vectors are now :
 -----------------------------------------------------------------------------
  energy-cutoff  :      400.00
  volume of cell :     1174.53
      direct lattice vectors                 reciprocal lattice vectors
     7.410000000  0.000000000  0.000000000     0.134952767  0.077914995  0.000000000
    -3.705000000  6.417250000  0.000000000     0.000000000  0.155829989  0.000000000
     0.000000000  0.000000000 24.700000000     0.000000000  0.000000000  0.040485830

  length of vectors
     7.410000000  7.410001522 24.700000000     0.155830021  0.155829989  0.040485830


 FORCES acting on ions
    electron-ion (+dipol)            ewald-force                    non-local-force                 convergence-correction
 -----------------------------------------------------------------------------------------------
   0.131E+00 0.252E+00 0.292E+04   -.136E+00 -.244E+00 -.292E+04   0.479E-02 0.934E-02 -.125E+01   0.867E-03 -.742E-02 0.420E-02
   -.364E-01 0.353E+00 0.292E+04   0.467E-01 -.347E+00 -.292E+04   -.919E-02 -.213E-02 -.122E+01   -.112E-02 -.394E-02 0.383E-02
   -.104E+00 0.155E+00 0.292E+04   0.902E-01 -.169E+00 -.292E+04   0.105E-01 0.174E-01 -.125E+01   0.250E-03 -.114E-02 0.468E-02
   0.100E+00 -.768E-01 0.292E+04   -.844E-01 0.840E-01 -.292E+04   -.113E-01 -.566E-02 -.119E+01   -.486E-02 0.569E-02 0.436E-02
   0.119E+00 -.130E+00 0.292E+04   -.146E+00 0.137E+00 -.292E+04   0.107E-01 -.382E-02 -.120E+01   0.288E-02 0.370E-02 0.332E-02
   -.214E+00 -.114E+00 0.292E+04   0.231E+00 0.122E+00 -.292E+04   -.472E-02 -.716E-02 -.121E+01   0.199E-02 0.750E-02 0.412E-02
   0.683E-01 -.118E+00 0.292E+04   -.577E-01 0.118E+00 -.292E+04   -.247E-01 -.261E-02 -.122E+01   -.272E-02 -.310E-03 0.469E-02
   -.368E-01 -.233E+00 0.292E+04   0.328E-01 0.247E+00 -.292E+04   0.701E-03 -.108E-01 -.123E+01   0.574E-02 -.176E-02 0.509E-02
   -.354E-01 -.606E-01 0.292E+04   0.255E-01 0.492E-01 -.292E+04   0.287E-01 0.514E-02 -.123E+01   -.302E-02 -.232E-02 0.501E-02
   -.808E-01 -.565E-01 0.113E+04   0.872E-01 0.586E-01 -.113E+04   -.182E-02 0.192E-01 -.484E+00   0.146E-02 -.391E-02 0.127E-01
   0.137E+01 0.254E+01 0.113E+04   -.139E+01 -.256E+01 -.113E+04   0.279E-03 -.888E-02 -.408E+00   -.149E-02 -.629E-02 0.106E-01
   -.116E+01 0.212E+01 0.113E+04   0.118E+01 -.213E+01 -.113E+04   0.245E-02 -.138E-01 -.411E+00   0.357E-04 -.215E-02 0.126E-01
   0.215E+01 0.454E+00 0.114E+04   -.215E+01 -.457E+00 -.114E+04   -.265E-01 0.740E-02 -.369E+00   -.220E-02 0.202E-04 0.144E-01
   -.455E+00 0.418E+00 0.114E+04   0.445E+00 -.418E+00 -.114E+04   0.320E-02 -.214E-01 -.422E+00   0.275E-02 0.205E-02 0.123E-01
   -.153E+01 0.189E+00 0.114E+04   0.152E+01 -.205E+00 -.114E+04   0.217E-01 0.130E-01 -.392E+00   -.550E-03 0.329E-02 0.132E-01
   0.370E+00 -.526E+00 0.114E+04   -.365E+00 0.537E+00 -.114E+04   -.885E-03 -.448E-01 -.362E+00   -.432E-02 0.164E-02 0.102E-01
   0.108E+01 -.297E+01 0.114E+04   -.109E+01 0.298E+01 -.114E+04   -.785E-02 0.163E-01 -.419E+00   0.226E-02 0.302E-02 0.114E-01
   -.136E+01 -.262E+01 0.113E+04   0.136E+01 0.266E+01 -.113E+04   0.156E-01 -.237E-02 -.447E+00   0.206E-02 0.233E-02 0.811E-02
   0.415E+00 0.135E+02 -.653E+03   -.437E+00 -.134E+02 0.653E+03   0.234E-01 -.134E+00 0.205E+00   -.132E-02 -.294E-02 0.156E-01
   -.208E+01 0.361E+01 -.653E+03   0.209E+01 -.364E+01 0.652E+03   -.993E-02 0.370E-01 0.577E+00   -.369E-03 -.113E-02 0.165E-01
   0.195E+01 0.819E+01 -.654E+03   -.190E+01 -.818E+01 0.653E+03   -.634E-01 -.113E-01 0.387E+00   0.167E-02 0.146E-02 0.167E-01
   0.567E+01 -.243E+01 -.652E+03   -.564E+01 0.245E+01 0.652E+03   -.328E-01 -.261E-01 0.973E-01   -.359E-02 -.246E-03 0.149E-01
   -.815E+01 -.345E+01 -.640E+03   0.797E+01 0.336E+01 0.640E+03   0.175E+00 0.887E-01 0.194E+00   0.719E-03 0.670E-03 0.144E-01
   0.242E+01 -.378E+01 -.647E+03   -.234E+01 0.379E+01 0.647E+03   -.893E-01 -.121E-01 0.378E+00   0.287E-02 0.177E-02 0.167E-01
   -.187E+01 -.735E+01 -.664E+03   0.179E+01 0.727E+01 0.664E+03   0.855E-01 0.759E-01 0.223E+00   -.745E-03 0.275E-03 0.136E-01
   -.354E+01 -.434E+01 -.655E+03   0.357E+01 0.444E+01 0.654E+03   -.313E-01 -.918E-01 0.506E+00   0.278E-02 0.976E-03 0.145E-01
   0.500E+01 -.309E+01 -.668E+03   -.491E+01 0.300E+01 0.667E+03   -.953E-01 0.937E-01 0.241E+00   -.211E-02 -.862E-03 0.148E-01
   0.266E+01 0.602E+02 -.251E+04   -.274E+01 -.604E+02 0.251E+04   0.763E-01 0.179E+00 0.885E+00   0.610E-03 -.311E-03 0.573E-02
   -.108E+02 0.162E+02 -.251E+04   0.108E+02 -.164E+02 0.251E+04   -.600E-01 0.143E+00 0.121E+01   -.118E-02 -.229E-02 0.648E-02
   0.806E+01 -.136E+02 -.252E+04   -.808E+01 0.135E+02 0.252E+04   0.205E-01 0.948E-01 0.115E+01   0.433E-03 0.278E-02 0.677E-02
   -.780E+02 0.451E+02 -.235E+04   0.804E+02 -.460E+02 0.235E+04   -.238E+01 0.966E+00 0.321E+01   -.245E-02 -.269E-02 0.570E-02
   -.265E+02 0.483E+01 -.251E+04   0.265E+02 -.474E+01 0.251E+04   -.226E-01 -.100E+00 0.112E+01   0.406E-02 -.674E-03 0.676E-02
   0.904E+02 0.170E+02 -.242E+04   -.928E+02 -.180E+02 0.242E+04   0.240E+01 0.104E+01 0.337E+01   -.818E-03 0.409E-03 0.599E-02
   0.360E+02 -.101E+03 -.245E+04   -.363E+02 0.104E+03 0.244E+04   0.339E+00 -.236E+01 0.313E+01   -.455E-02 0.109E-03 0.529E-02
   -.421E+02 -.275E+02 -.247E+04   0.426E+02 0.279E+02 0.247E+04   -.514E+00 -.360E+00 0.195E+01   0.331E-02 0.235E-02 0.639E-02
   0.130E+02 -.876E+01 -.252E+04   -.132E+02 0.895E+01 0.252E+04   0.212E+00 -.190E+00 0.142E+01   0.148E-02 0.591E-03 0.593E-02
   -.594E+02 -.111E+03 -.127E+04   0.596E+02 0.112E+03 0.127E+04   -.185E+00 -.568E+00 0.547E+00   -.125E-03 -.607E-04 -.389E-02
   0.464E+02 -.890E+01 -.134E+04   -.450E+02 0.936E+01 0.134E+04   -.140E+01 -.467E+00 -.619E+01   -.331E-03 -.652E-04 -.393E-02
   -.524E+02 0.108E+03 -.126E+04   0.528E+02 -.108E+03 0.125E+04   -.418E+00 0.461E+00 0.451E+00   -.160E-03 0.121E-04 -.421E-02
   0.973E+02 -.149E+02 -.197E+04   -.106E+03 0.250E+02 0.196E+04   0.875E+01 -.101E+02 0.155E+02   -.244E-02 -.416E-03 -.323E-02
   0.213E+02 -.596E+02 -.309E+03   -.240E+02 0.641E+02 0.307E+03   0.273E+01 -.452E+01 0.170E+01   -.218E-04 -.201E-04 -.980E-03
   -.583E+02 -.117E+02 -.303E+03   0.629E+02 0.115E+02 0.301E+03   -.457E+01 0.308E+00 0.291E+01   0.125E-04 0.358E-04 -.833E-03
   -.203E+02 -.205E+02 -.326E+03   0.217E+02 0.211E+02 0.331E+03   -.140E+01 -.679E+00 -.523E+01   -.481E-04 -.692E-04 -.125E-02
   0.629E+02 -.604E+01 -.336E+03   -.678E+02 0.648E+01 0.338E+03   0.483E+01 -.430E+00 -.288E+01   0.841E-04 -.196E-04 -.123E-02
   0.160E+02 0.514E+02 -.337E+03   -.162E+02 -.528E+02 0.338E+03   0.232E+00 0.140E+01 -.351E+00   -.527E-03 -.895E-04 -.502E-03
   -.573E+02 0.207E+02 -.298E+03   0.619E+02 -.213E+02 0.295E+03   -.457E+01 0.542E+00 0.302E+01   -.338E-04 -.585E-04 -.942E-03
   -.199E+02 0.120E+02 -.320E+03   0.213E+02 -.119E+02 0.325E+03   -.142E+01 -.116E+00 -.528E+01   -.584E-04 0.551E-04 -.125E-02
   0.251E+02 0.590E+02 -.307E+03   -.282E+02 -.635E+02 0.306E+03   0.305E+01 0.452E+01 0.853E+00   0.152E-06 0.339E-04 -.114E-02
 -----------------------------------------------------------------------------------------------
   -.571E+01 0.102E+02 -.107E+02   -.107E-12 -.227E-12 0.796E-12   0.568E+01 -.102E+02 0.106E+02   -.285E-02 -.434E-03 0.314E+00
 
 
 POSITION                                       TOTAL-FORCE (eV/Angst)
 -----------------------------------------------------------------------------------
      1.23500      0.71303      0.00000         0.001243      0.011292      0.461158
      3.70500      0.71303      0.00000         0.000560      0.000461      0.477466
      6.17500      0.71303      0.00000        -0.002405      0.003497      0.464097
     -0.00000      2.85211      0.00000         0.000062      0.007968      0.461448
      2.47000      2.85211      0.00000        -0.012699      0.007178      0.468167
      4.94000      2.85211      0.00000         0.014897      0.009485      0.465237
      1.23500      4.99118      0.00000        -0.016288     -0.001884      0.457512
      3.70500      4.99118      0.00000         0.002941      0.002251      0.473611
     -1.23500      4.99118      0.00000         0.016359     -0.007879      0.448959
      0.00000      0.00000      2.01675         0.007038      0.018011     -0.495275
      2.47000      0.00000      2.01675        -0.026760     -0.030499     -0.436850
      4.94000      0.00000      2.01675         0.018313     -0.026804     -0.446459
      1.23500      2.13908      2.01675        -0.019140      0.004827     -0.453808
      3.70500      2.13908      2.01675        -0.002975     -0.019174     -0.498884
      6.17500      2.13908      2.01675         0.016190      0.001330     -0.460430
      0.00000      4.27816      2.01675         0.000693     -0.031798     -0.446948
      2.47000      4.27816      2.01675        -0.022260      0.031727     -0.460530
      4.94000      4.27816      2.01675         0.022026      0.032590     -0.469261
      1.23518      0.71965      4.05690        -0.000739     -0.004282     -0.004356
      3.70119      0.71452      4.04411        -0.000402      0.002514      0.003974
      6.17002      0.71410      4.05533        -0.007052     -0.000170      0.007054
     -0.00137      2.85415      4.06797         0.000983     -0.005097     -0.003610
      2.46635      2.85954      4.04547        -0.005948     -0.006893      0.001698
      4.93435      2.86120      4.04300         0.004529      0.000459      0.003612
      1.21853      4.98596      4.06739         0.001148     -0.000923     -0.001542
      3.70285      5.00419      4.04804        -0.001498      0.001658      0.002122
     -1.22499      4.98639      4.06350        -0.003033      0.000002     -0.004547
     -0.00838      0.02300      6.01947         0.000665      0.003007      0.000095
     -1.23107      6.40136      5.98632         0.000160      0.001504     -0.000898
      1.21978      6.40543      5.98866         0.003456      0.000857     -0.004060
      1.29464      2.13372      6.00263        -0.001919     -0.000299     -0.000868
      3.70295      2.13104      5.97328        -0.000484     -0.004514     -0.002677
      6.10916      2.12289      5.98202         0.001698     -0.001133      0.004388
     -0.00333      4.26712      6.06799        -0.000132     -0.001069     -0.003415
      2.50087      4.30316      5.97798        -0.001372     -0.000256     -0.004750
      4.91387      4.29609      5.98137         0.002481     -0.005449      0.000061
      1.40247      4.12338      9.28078         0.009183      0.001395      0.000564
      0.57085      2.87106      9.09844         0.006384     -0.009024      0.004297
      1.31087      1.60597      9.48843        -0.009823      0.007068      0.002130
      0.17786      2.79574      7.69144        -0.000679      0.002230     -0.001344
      0.85094      5.01462      8.94831         0.000261      0.002528     -0.000965
      2.32974      4.04926      8.68568        -0.002716     -0.000769      0.003604
      1.67742      4.24713     10.33935         0.001528      0.001404      0.000482
     -0.37277      2.95397      9.66467        -0.000806      0.002245     -0.000614
     -0.00983      1.61184      7.22357         0.005189     -0.002511     -0.002070
      2.22666      1.50846      8.88360         0.004959     -0.000347     -0.003825
      1.58943      1.64277     10.55196        -0.001850      0.000152     -0.003064
      0.69088      0.71366      9.31809        -0.001965      0.003135     -0.000686
 -----------------------------------------------------------------------------------
    total drift:                               -0.031858     -0.030561      0.216179


--------------------------------------------------------------------------------------------------------



  FREE ENERGIE OF THE ION-ELECTRON SYSTEM (eV)
  ---------------------------------------------------
  free  energy   TOTEN  =      -312.63831878 eV

  energy  without entropy=     -312.63320574  energy(sigma->0) =     -312.63704052
 


--------------------------------------------------------------------------------------------------------


    POTLOK:  cpu time    0.42: real time    0.41


--------------------------------------------------------------------------------------------------------


 Dimer: Init Mode:
 Dimer: MODECAR found
 Dimer: -----------------
 Dimer: Itr    1 Rot    0

 Dimer: Central Point
 Dimer: F0      0.032589

 Dimer: Projection
 Dimer: N*F0 -1.426676989964767E-003
 Dimer: F0sq  1.062034087964207E-003
 Dimer: Feffsq   2.035407233694927E-006
 
 stress matrix after NEB project (eV)
    -18.27720      0.17292      0.08538
      0.17292    -20.23196      0.03076
      0.08538      0.03076    -11.12790
  FORCES: max atom, RMS     0.012287    0.004704
  FORCE total and by dimension    0.032589    0.009823
  Stress total and by dimension   29.449864   20.231959
 OPT: skip step - force has converged


--------------------------------------------------------------------------------------------------------


  
 reached required accuracy - stopping structural energy minimisation
     LOOP+:  cpu time 2100.71: real time 2101.01
    4ORBIT:  cpu time    0.00: real time    0.01

 total amount of memory used by VASP on root node   182355. kBytes
========================================================================

   base      :      30000. kBytes
   nonlr-proj:       9791. kBytes
   fftplans  :       6203. kBytes
   grid      :      28885. kBytes
   one-center:       1492. kBytes
   wavefun   :     105984. kBytes
 
  
  
 General timing and accounting informations for this job:
 ========================================================
  
                  Total CPU time used (sec):     2106.632
                            User time (sec):     2105.332
                          System time (sec):        1.300
                         Elapsed time (sec):     2109.464
  
                   Maximum memory used (kb):      226512.
                   Average memory used (kb):           0.
  
                          Minor page faults:       272748
                          Major page faults:          100
                 Voluntary context switches:         1013
